
                                 *****************
                                 * O   R   C   A *
                                 *****************

                                            #,                                       
                                            ###                                      
                                            ####                                     
                                            #####                                    
                                            ######                                   
                                           ########,                                 
                                     ,,################,,,,,                         
                               ,,#################################,,                 
                          ,,##########################################,,             
                       ,#########################################, ''#####,          
                    ,#############################################,,   '####,        
                  ,##################################################,,,,####,       
                ,###########''''           ''''###############################       
              ,#####''   ,,,,##########,,,,          '''####'''          '####       
            ,##' ,,,,###########################,,,                        '##       
           ' ,,###''''                  '''############,,,                           
         ,,##''                                '''############,,,,        ,,,,,,###''
      ,#''                                            '''#######################'''  
     '                                                          ''''####''''         
             ,#######,   #######,   ,#######,      ##                                
            ,#'     '#,  ##    ##  ,#'     '#,    #''#        ,####,   ,####,        
            ##       ##  ##   ,#'  ##            #'  '#       #'       #'  '#        
            ##       ##  #######   ##           ,######,      #####,   #    #        
            '#,     ,#'  ##    ##  '#,     ,#' ,#      #,     #,   #   #,  ,#        
             '#######'   ##     ##  '#######'  #'      '#     '####' # '####'        



                #########################################################
                #                        -***-                          #
                #          Department of theory and spectroscopy        #
                #                                                       #
                #                      Frank Neese                      #
                #                                                       #
                #     Directorship, Architecture, Infrastructure        #
                #                    SHARK, DRIVERS                     #
                #        Core code/Algorithms in most modules           #
                #                                                       #
                #        Max Planck Institute fuer Kohlenforschung      #
                #                Kaiser Wilhelm Platz 1                 #
                #                 D-45470 Muelheim/Ruhr                 #
                #                      Germany                          #
                #                                                       #
                #                  All rights reserved                  #
                #                        -***-                          #
                #########################################################


                         Program Version 6.0.1  -  RELEASE   -


 With contributions from (in alphabetic order):
[Max-Planck-Institut fuer Kohlenforschung]                               
  Daniel Aravena         : Magnetic Suceptibility                        
  Michael Atanasov       : Ab Initio Ligand Field Theory (pilot matlab implementation)
  Alexander A. Auer      : GIAO ZORA, VPT2 properties, NMR spectrum      
  Ute Becker             : All parallelization in ORCA, NUMFREQ, NUMCALC 
  Giovanni Bistoni       : ED, misc. LED, open-shell LED, HFLD           
  Martin Brehm           : Molecular dynamics                            
  Dmytro Bykov           : pre 5.0 version of the SCF Hessian            
  Marcos Casanova-Páez   : Triplet and SCS-CIS(D). UHF-(DLPNO)-IP/EA/STEOM-CCSD. UHF-CVS-IP/STEOM-CCSD   
  Vijay G. Chilkuri      : MRCI spin determinant printing, contributions to CSF-ICE 
  Pauline Colinet        : FMM embedding                                 
  Dipayan Datta          : RHF DLPNO-CCSD density                        
  Achintya Kumar Dutta   : EOM-CC, STEOM-CC                              
  Nicolas Foglia         : Exact transition moments, OPA infrastructure, MCD improvements    
  Dmitry Ganyushin       : Spin-Orbit,Spin-Spin,Magnetic field MRCI      
  Miquel Garcia-Rates    : C-PCM and meta-GGA Hessian, CCSD/C-PCM, Gaussian charge scheme 
  Tiago L. C. Gouveia    : GS-ROHF, GS-ROCIS                             
  Yang Guo               : DLPNO-NEVPT2, F12-NEVPT2, CIM, IAO-localization        
  Andreas Hansen         : Spin unrestricted coupled pair/coupled cluster methods 
  Ingolf Harden          : AUTO-CI MPn and infrastructure                
  Benjamin Helmich-Paris : MC-RPA, TRAH-(SCF,CASSCF), AVAS, COSX integrals, SCF dyn. polar. 
  Lee Huntington         : MR-EOM, pCC                                   
  Robert Izsak           : Overlap fitted RIJCOSX, COSX-SCS-MP3, EOM     
  Riya Kayal             : Wick's Theorem for AUTO-CI, AUTO-CI UHF-CCSDT 
  Emily Kempfer          : AUTO-CI, RHF CISDT and CCSDT                  
  Christian Kollmar      : KDIIS, OOCD, Brueckner-CCSD(T), CCSD density, CASPT2, CASPT2-K, improved NEVPT2 
  Axel Koslowski         : Symmetry handling                             
  Simone Kossmann        : meta-GGA functionals, TD-DFT gradient, OOMP2, (MP2 Hessian; deprecated post 5.0) 
  Lucas Lang             : DCDCAS                                        
  Marvin Lechner         : AUTO-CI (C++ implementation), FIC-MRCC        
  Spencer Leger          : CASSCF response                               
  Dagmar Lenk            : GEPOL surface, SMD, ORCA-2-JSON               
  Dimitrios Liakos       : Extrapolation schemes; Compound Job, initial MDCI parallelization 
  Dimitrios Manganas     : Further ROCIS development; embedding schemes. LFT, Crystal Embedding 
  Dimitrios Pantazis     : SARC Basis sets                               
  Anastasios Papadopoulos: AUTO-CI, single reference methods and gradients 
  Taras Petrenko         : pre 6.0 DFT Hessian and TD-DFT gradient, (ASA, deprecated), ECA, 1-Electron XAS/XES, NRVS 
  Peter Pinski           : DLPNO-MP2, DLPNO-MP2 Gradient                 
  Christoph Reimann      : Effective Core Potentials                     
  Marius Retegan         : Local ZFS, SOC                                
  Christoph Riplinger    : Optimizer, TS searches, QM/MM, DLPNO-CCSD(T), (RO)-DLPNO pert. Triples 
  Michael Roemelt        : Original ROCIS implementation                 
  Masaaki Saitow         : Open-shell DLPNO-CCSD energy and density      
  Barbara Sandhoefer     : DKH picture change effects                    
  Kantharuban Sivalingam : CASSCF convergence/infrastructure, NEVPT2 and variants, FIC-MRCI 
  Bernardo de Souza      : ESD, SOC TD-DFT                               
  Georgi L. Stoychev     : AutoAux, RI-MP2 NMR, DLPNO-MP2 response, X2C  
  Van Anh Tran           : RI-MP2 g-tensors                              
  Willem Van den Heuvel  : Paramagnetic NMR                              
  Zikuan Wang            : NOTCH, Electric field optimization            
  Frank Wennmohs         : Technical directorship and infrastructure     
  Hang Xu                : AUTO-CI-Response properties                   
                                                                         
[FACCTs GmbH]                                                            
  Markus Bursch, Miquel Garcia-Rates, Christoph Riplinger, Bernardo de Souza, Georgi L. Stoychev 
                                                                 
  APM, Basis sets (HGBS, AHGBS, def-TZVP (Ac-Lr), def2-XVPD (La-Lu)), CI-OPT, improved COSX, DLPNO-Multilevel,           
  DOCKER, DRACO, updates on ESD, GOAT, IRC, LR-CPCM, MBIS, meta-GGA TD-DFT gradient, ML-optimized integration grids, 
  MM, NACMEs, nearIR, NEB, NEB-TS, NL-DFT gradient (VV10), 2- and 3-layer-ONIOM, interface openCOSMO-RS, QMMM,   
  Crystal-QMMM, SF, symmetry and pop. for TD-DFT, r2SCAN hybrids, SOLVATOR                                   
                                                                         
[Other institutions]                                                     
  V. Asgeirsson          : NEB                                           
  Christoph Bannwarth    : sTDA-DFT, sTD-DFT, PBEh-3c, B97-3c, D3        
  Sebastian Ehlert       : rSCAN, r2SCAN, r2SCAN-3c, D4, dhf basis sets  
  Marvin Friede          : D4 for Fr, Ra, Ac-Lr                          
  Lars Goerigk           : TD-DFT with DH, B97 family of functionals     
  Stefan Grimme          : VdW corrections, initial TS optimization, DFT functionals, gCP, sTDA/sTD-DF 
  Waldemar Hujo          : DFT-NL                                        
  H. Jonsson             : NEB                                           
  Holger Kruse           : gCP                                           
  Marcel Mueller         : wB97X-3c, vDZP basis set                      
  Hagen Neugebauer       : wr2SCAN                                       
  Tobias Risthaus        : range-separated hybrid DFT                    
  Lukas Wittmann         : regularized MP2, r2SCAN double-hybrids, wr2SCAN        
                                                                         
We gratefully acknowledge several colleagues who have allowed us to      
interface, adapt or use parts of their codes:                            
  Ed Valeev, F. Pavosevic, A. Kumar             : LibInt (2-el integral package), F12 methods 
  Garnet Chan, S. Sharma, J. Yang, R. Olivares  : DMRG                   
  Ulf Ekstrom                                   : XCFun DFT Library      
  Mihaly Kallay                                 : mrcc  (arbitrary order and MRCC methods)
  Frank Weinhold                                : gennbo (NPA and NBO analysis)           
  Simon Mueller                                 : openCOSMO-RS                            
  Christopher J. Cramer and Donald G. Truhlar   : smd solvation model                     
  S Lehtola, MJT Oliveira, MAL Marques          : LibXC Library                           
  Liviu Ungur et al                             : ANISO software                          


 Your calculation uses the libint2 library for the computation of 2-el integrals
 For citations please refer to: http://libint.valeyev.net

 Your ORCA version has been built with support for libXC version: 6.2.2
 For citations please refer to: https://libxc.gitlab.io

 This ORCA versions uses:
   CBLAS   interface :  Fast vector & matrix operations
   LAPACKE interface :  Fast linear algebra routines
   SCALAPACK package :  Parallel linear algebra routines
   Shared memory     :  Shared parallel matrices
   BLAS/LAPACK       :  OpenBLAS 0.3.27  USE64BITINT DYNAMIC_ARCH NO_AFFINITY Cooperlake SINGLE_THREADED
        Core in use  :  Cooperlake
   Copyright (c) 2011-2014, The OpenBLAS Project


NOTE: MaxCore=700 MB was set to SCF,MP2,MDCI,CIPSI,MRCI and CIS
      => If you want to overwrite this, your respective input block should be placed after the MaxCore statement
================================================================================

----- Orbital basis set information -----
Your calculation utilizes the basis: STO-3G
   H-Ne       : W. J. Hehre, R. F. Stewart and J. A. Pople, J. Chem. Phys. 2657 (1969).
   Na-Ar      : W. J. Hehre, R. Ditchfield, R. F. Stewart and J. A. Pople, J. Chem. Phys. 2769 (1970).
   K,Ca,Ga-Kr : W. J. Pietro, B. A. Levy, W. J. Hehre and R. F. Stewart, J. Am. Chem. Soc. 19, 2225 (1980).
   Sc-Zn,Y-Cd : W. J. Pietro and W. J. Hehre, J. Comp. Chem. 4, 241 (1983).

================================================================================
                                        WARNINGS
                       Please study these warnings very carefully!
================================================================================


================================================================================
                                       INPUT FILE
================================================================================
NAME = dvb_sp_hf.inp
|  1> !  hf sto-3g usesym
|  2> 
|  3> * xyz 0 1
|  4>  C       -1.4152533224   0.2302217854   0.0000000000
|  5>  C        1.4152533224  -0.2302217854   0.0000000000
|  6>  C       -0.4951331558   1.3144608674   0.0000000000
|  7>  C        0.4951331558  -1.3144608674   0.0000000000
|  8>  C        0.8894090436   1.0909493743   0.0000000000
|  9>  C       -0.8894090436  -1.0909493743   0.0000000000
| 10>  H       -0.8795511985   2.3437343748   0.0000000000
| 11>  H        0.8795511985  -2.3437343748   0.0000000000
| 12>  H        1.5779041557   1.9450061275   0.0000000000
| 13>  H       -1.5779041557  -1.9450061275   0.0000000000
| 14>  C        2.8845844962  -0.5210893778   0.0000000000
| 15>  C       -2.8845844962   0.5210893778   0.0000000000
| 16>  H        3.1403356810  -1.5919605685   0.0000000000
| 17>  H       -3.1403356810   1.5919605685   0.0000000000
| 18>  C        3.8800428103   0.3822535424   0.0000000000
| 19>  C       -3.8800428103  -0.3822535424   0.0000000000
| 20>  H        3.6946765858   1.4624389570   0.0000000000
| 21>  H       -3.6946765858  -1.4624389570   0.0000000000
| 22>  H        4.9316453546   0.0711049543   0.0000000000
| 23>  H       -4.9316453546  -0.0711049543   0.0000000000
| 24> *
| 25> %pal
| 26>  nprocs 4
| 27> end
| 28> %MaxCore 700
| 29> 
| 30>                          ****END OF INPUT****
================================================================================
-----------------------
SYMMETRY HANDLING SETUP
-----------------------
Auto-detected point group .... C2h
Reduced point group       .... C2h
Root mean square distance .... 0.000000000000000 au
Maximum distance          .... 0.000000000000000 au
Threshold in use          .... 0.000100000000000 au
Time for symmetry setup   .... 0.008 s


Symmetry-perfected Cartesians for point group C2h:

Index  Symbol         Symmetry-perfected Cartesians (x, y, z; au)
   0     C      -2.67444118945816    0.43505612446839    0.00000000000000
   1     C       2.67444118945816   -0.43505612446839    0.00000000000000
   2     C      -0.93566606428616    2.48397105314258    0.00000000000000
   3     C       0.93566606428616   -2.48397105314258    0.00000000000000
   4     C       1.68073951343683    2.06159554339975    0.00000000000000
   5     C      -1.68073951343683   -2.06159554339975    0.00000000000000
   6     H      -1.66211088592721    4.42901609902915    0.00000000000000
   7     H       1.66211088592721   -4.42901609902915    0.00000000000000
   8     H       2.98180671984924    3.67552890977372    0.00000000000000
   9     H      -2.98180671984924   -3.67552890977372    0.00000000000000
  10     C       5.45107470797321   -0.98471621533742    0.00000000000000
  11     C      -5.45107470797321    0.98471621533742    0.00000000000000
  12     H       5.93437440567109   -3.00836949046658    0.00000000000000
  13     H      -5.93437440567109    3.00836949046658    0.00000000000000
  14     C       7.33221829935717    0.72235450885726    0.00000000000000
  15     C      -7.33221829935717   -0.72235450885726    0.00000000000000
  16     H       6.98192690057320    2.76360911630744    0.00000000000000
  17     H      -6.98192690057320   -2.76360911630744    0.00000000000000
  18     H       9.31945910981896    0.13436889039199    0.00000000000000
  19     H      -9.31945910981896   -0.13436889039199    0.00000000000000

Index  Symbol         Symmetry-perfected Cartesians (x, y, z; Ang)
   0     C      -1.41525332240000    0.23022178540000    0.00000000000000
   1     C       1.41525332240000   -0.23022178540000    0.00000000000000
   2     C      -0.49513315580000    1.31446086740000    0.00000000000000
   3     C       0.49513315580000   -1.31446086740000    0.00000000000000
   4     C       0.88940904360000    1.09094937430000    0.00000000000000
   5     C      -0.88940904360000   -1.09094937430000    0.00000000000000
   6     H      -0.87955119850000    2.34373437480000    0.00000000000000
   7     H       0.87955119850000   -2.34373437480000    0.00000000000000
   8     H       1.57790415570000    1.94500612750000    0.00000000000000
   9     H      -1.57790415570000   -1.94500612750000    0.00000000000000
  10     C       2.88458449620000   -0.52108937780000    0.00000000000000
  11     C      -2.88458449620000    0.52108937780000    0.00000000000000
  12     H       3.14033568100000   -1.59196056850000    0.00000000000000
  13     H      -3.14033568100000    1.59196056850000    0.00000000000000
  14     C       3.88004281030000    0.38225354240000    0.00000000000000
  15     C      -3.88004281030000   -0.38225354240000    0.00000000000000
  16     H       3.69467658580000    1.46243895700000    0.00000000000000
  17     H      -3.69467658580000   -1.46243895700000    0.00000000000000
  18     H       4.93164535460000    0.07110495430000    0.00000000000000
  19     H      -4.93164535460000   -0.07110495430000    0.00000000000000

                       ****************************
                       * Single Point Calculation *
                       ****************************

---------------------------------
CARTESIAN COORDINATES (ANGSTROEM)
---------------------------------
  C     -1.415253    0.230222    0.000000
  C      1.415253   -0.230222    0.000000
  C     -0.495133    1.314461    0.000000
  C      0.495133   -1.314461    0.000000
  C      0.889409    1.090949    0.000000
  C     -0.889409   -1.090949    0.000000
  H     -0.879551    2.343734    0.000000
  H      0.879551   -2.343734    0.000000
  H      1.577904    1.945006    0.000000
  H     -1.577904   -1.945006    0.000000
  C      2.884584   -0.521089    0.000000
  C     -2.884584    0.521089    0.000000
  H      3.140336   -1.591961    0.000000
  H     -3.140336    1.591961    0.000000
  C      3.880043    0.382254    0.000000
  C     -3.880043   -0.382254    0.000000
  H      3.694677    1.462439    0.000000
  H     -3.694677   -1.462439    0.000000
  H      4.931645    0.071105    0.000000
  H     -4.931645   -0.071105    0.000000

----------------------------
CARTESIAN COORDINATES (A.U.)
----------------------------
  NO LB      ZA    FRAG     MASS         X           Y           Z
   0 C     6.0000    0    12.011   -2.674441    0.435056    0.000000
   1 C     6.0000    0    12.011    2.674441   -0.435056    0.000000
   2 C     6.0000    0    12.011   -0.935666    2.483971    0.000000
   3 C     6.0000    0    12.011    0.935666   -2.483971    0.000000
   4 C     6.0000    0    12.011    1.680740    2.061596    0.000000
   5 C     6.0000    0    12.011   -1.680740   -2.061596    0.000000
   6 H     1.0000    0     1.008   -1.662111    4.429016    0.000000
   7 H     1.0000    0     1.008    1.662111   -4.429016    0.000000
   8 H     1.0000    0     1.008    2.981807    3.675529    0.000000
   9 H     1.0000    0     1.008   -2.981807   -3.675529    0.000000
  10 C     6.0000    0    12.011    5.451075   -0.984716    0.000000
  11 C     6.0000    0    12.011   -5.451075    0.984716    0.000000
  12 H     1.0000    0     1.008    5.934374   -3.008369    0.000000
  13 H     1.0000    0     1.008   -5.934374    3.008369    0.000000
  14 C     6.0000    0    12.011    7.332218    0.722355    0.000000
  15 C     6.0000    0    12.011   -7.332218   -0.722355    0.000000
  16 H     1.0000    0     1.008    6.981927    2.763609    0.000000
  17 H     1.0000    0     1.008   -6.981927   -2.763609    0.000000
  18 H     1.0000    0     1.008    9.319459    0.134369    0.000000
  19 H     1.0000    0     1.008   -9.319459   -0.134369    0.000000

--------------------------------
INTERNAL COORDINATES (ANGSTROEM)
--------------------------------
 C      0   0   0     0.000000000000     0.00000000     0.00000000
 C      1   0   0     2.867712703209     0.00000000     0.00000000
 C      1   2   0     1.422039207589    58.92046780     0.00000000
 C      2   1   3     1.422039207589    58.92046780   180.00000085
 C      3   1   2     1.402467286416   121.14866524     0.00000000
 C      4   2   1     1.402467286416   121.14866524     0.00000000
 H      3   1   2     1.098717973180   119.20109491   180.00000000
 H      4   2   1     1.098717973180   119.20109491   180.00000000
 H      5   3   1     1.097013426113   119.70357006   180.00000000
 H      6   4   2     1.097013426113   119.70357006   180.00000000
 C      2   1   3     1.497844469432   178.04202002   180.00000000
 C      1   2   3     1.497844469432   178.04202002     0.00000000
 H     11   2   5     1.100987636442   114.62953459   180.00000000
 H     12   1   6     1.100987636442   114.62953459   180.00000000
 C     11   2   5     1.344234237991   126.57992264     0.00000000
 C     12   1   6     1.344234237991   126.57992264     0.00000000
 H     15  11   2     1.095974984705   122.48517186     0.00000000
 H     16  12   1     1.095974984705   122.48517186     0.00000000
 H     15  11   2     1.096668297643   121.29492471   180.00000085
 H     16  12   1     1.096668297643   121.29492471   180.00000085

---------------------------
INTERNAL COORDINATES (A.U.)
---------------------------
 C      0   0   0     0.000000000000     0.00000000     0.00000000
 C      1   0   0     5.419191639833     0.00000000     0.00000000
 C      1   2   0     2.687264654042    58.92046780     0.00000000
 C      2   1   3     2.687264654042    58.92046780   180.00000085
 C      3   1   2     2.650279083110   121.14866524     0.00000000
 C      4   2   1     2.650279083110   121.14866524     0.00000000
 H      3   1   2     2.076276067727   119.20109491   180.00000000
 H      4   2   1     2.076276067727   119.20109491   180.00000000
 H      5   3   1     2.073054940588   119.70357006   180.00000000
 H      6   4   2     2.073054940588   119.70357006   180.00000000
 C      2   1   3     2.830515838436   178.04202002   180.00000000
 C      1   2   3     2.830515838436   178.04202002     0.00000000
 H     11   2   5     2.080565109708   114.62953459   180.00000000
 H     12   1   6     2.080565109708   114.62953459   180.00000000
 C     11   2   5     2.540234569643   126.57992264     0.00000000
 C     12   1   6     2.540234569643   126.57992264     0.00000000
 H     15  11   2     2.071092570722   122.48517186     0.00000000
 H     16  12   1     2.071092570722   122.48517186     0.00000000
 H     15  11   2     2.072402742299   121.29492471   180.00000085
 H     16  12   1     2.072402742299   121.29492471   180.00000085

---------------------
BASIS SET INFORMATION
---------------------
There are 2 groups of distinct atoms

 Group   1 Type C   : 6s3p contracted to 2s1p pattern {33/3}
 Group   2 Type H   : 3s contracted to 1s pattern {3}

Atom   0C    basis set group =>   1
Atom   1C    basis set group =>   1
Atom   2C    basis set group =>   1
Atom   3C    basis set group =>   1
Atom   4C    basis set group =>   1
Atom   5C    basis set group =>   1
Atom   6H    basis set group =>   2
Atom   7H    basis set group =>   2
Atom   8H    basis set group =>   2
Atom   9H    basis set group =>   2
Atom  10C    basis set group =>   1
Atom  11C    basis set group =>   1
Atom  12H    basis set group =>   2
Atom  13H    basis set group =>   2
Atom  14C    basis set group =>   1
Atom  15C    basis set group =>   1
Atom  16H    basis set group =>   2
Atom  17H    basis set group =>   2
Atom  18H    basis set group =>   2
Atom  19H    basis set group =>   2


           ************************************************************
           *        Program running with 4 parallel MPI-processes     *
           *              working on a common directory               *
           ************************************************************
------------------------------------------------------------------------------
                             ORCA STARTUP CALCULATIONS
------------------------------------------------------------------------------
------------------------------------------------------------------------------
                   ___                                                        
                  /   \      - P O W E R E D   B Y -                         
                 /     \                                                     
                 |  |  |   _    _      __       _____    __    __             
                 |  |  |  | |  | |    /  \     |  _  \  |  |  /  |          
                  \  \/   | |  | |   /    \    | | | |  |  | /  /          
                 / \  \   | |__| |  /  /\  \   | |_| |  |  |/  /          
                |  |  |   |  __  | /  /__\  \  |    /   |      \           
                |  |  |   | |  | | |   __   |  |    \   |  |\   \          
                \     /   | |  | | |  |  |  |  | |\  \  |  | \   \       
                 \___/    |_|  |_| |__|  |__|  |_| \__\ |__|  \__/        
                                                                              
                      - O R C A' S   B I G   F R I E N D -                    
                                      &                                       
                       - I N T E G R A L  F E E D E R -                       
                                                                              
 v1 FN, 2020, v2 2021, v3 2022-2024                                           
------------------------------------------------------------------------------


----------------------
SHARK INTEGRAL PACKAGE
----------------------

Number of atoms                             ...     20
Number of basis functions                   ...     60
Number of shells                            ...     40
Maximum angular momentum                    ...      1
Integral batch strategy                     ... SHARK/LIBINT Hybrid
RI-J (if used) integral strategy            ... SPLIT-RIJ (Revised 2003 algorithm where possible)
Printlevel                                  ...      1
Contraction scheme used                     ... SEGMENTED contraction
Prescreening option                         ... SCHWARTZ
   Thresh                                   ... 1.000e-10
   Tcut                                     ... 1.000e-11
   Tpresel                                  ... 1.000e-11 
Coulomb Range Separation                    ... NOT USED
Exchange Range Separation                   ... NOT USED
Multipole approximations                    ... NOT USED
Finite Nucleus Model                        ... NOT USED
CABS basis                                  ... NOT available
Auxiliary Coulomb fitting basis             ... NOT available
Auxiliary J/K fitting basis                 ... NOT available
Auxiliary Correlation fitting basis         ... NOT available
Auxiliary 'external' fitting basis          ... NOT available

Checking pre-screening integrals            ... done (  0.0 sec) Dimension = 40
Check shell pair data                       ... done (  0.0 sec)
Shell pair information
Shell pair cut-off parameter TPreSel        ...   1.0e-11
Total number of shell pairs                 ...       820
Shell pairs after pre-screening             ...       750
Total number of primitive shell pairs       ...      7380
Primitive shell pairs kept                  ...      4803
          la=0 lb=0:    405 shell pairs
          la=1 lb=0:    290 shell pairs
          la=1 lb=1:     55 shell pairs

Calculating one electron integrals          ... done (  0.0 sec)
Calculating Nuclear repulsion               ... done (  0.0 sec) ENN=    445.936977869861 Eh

Diagonalization of the overlap matrix:
Smallest eigenvalue                        ... 1.815e-01
Time for diagonalization                   ...    0.001 sec
Threshold for overlap eigenvalues          ... 1.000e-07
Number of eigenvalues below threshold      ... 0
Time for construction of square roots      ...    0.003 sec
Total time needed                          ...    0.004 sec

-------------------
DFT GRID GENERATION
-------------------

General Integration Accuracy     IntAcc      ... 4.388
Radial Grid Type                 RadialGrid  ... OptM3 with GC (2021)
Angular Grid (max. ang.)         AngularGrid ... 4 (Lebedev-302)
Angular grid pruning method      GridPruning ... 4 (adaptive)
Weight generation scheme         WeightScheme... mBecke (2022)
Basis function cutoff            BFCut       ... 1.0000e-10
Integration weight cutoff        WCut        ... 1.0000e-14
Partially contracted basis set               ... off
Rotationally invariant grid construction     ... off
Angular grids for H and He will be reduced by one unit

Total number of grid points                  ...    92318
Total number of batches                      ...     1450
Average number of points per batch           ...       63
Average number of grid points per atom       ...     4616
Initializing property integral containers    ... done (  0.0 sec)

SHARK setup successfully completed in   0.9 seconds

Maximum memory used throughout the entire STARTUP-calculation: 19.8 MB


           ************************************************************
           *        Program running with 4 parallel MPI-processes     *
           *              working on a common directory               *
           ************************************************************
-------------------------------------------------------------------------------
                                 ORCA GUESS
                   Start orbitals & Density for SCF / CASSCF
-------------------------------------------------------------------------------

Producing symmetrization matrix            ... done (   0.001 sec)
------------
SCF SETTINGS
------------
Hamiltonian:
 Ab initio Hamiltonian  Method          .... Hartree-Fock(GTOs)


General Settings:
 Integral files         IntName         .... dvb_sp_hf
 Hartree-Fock type      HFTyp           .... RHF
 Total Charge           Charge          ....    0
 Multiplicity           Mult            ....    1
 Number of Electrons    NEL             ....   70
 Basis Dimension        Dim             ....   60
 Nuclear Repulsion      ENuc            ....    445.9369778699 Eh

 Symmetry handling      UseSym         .... ON
 Point group                           .... C2h
 Symmetry-adapted orbitals             .... C2h
 Petite-list algorithm                 .... OFF
 Number of irreps                      .... 4
   Irrep   Ag has   25 symmetry adapted basis functions (ofs=   0)
   Irrep   Bg has    5 symmetry adapted basis functions (ofs=  25)
   Irrep   Au has    5 symmetry adapted basis functions (ofs=  30)
   Irrep   Bu has   25 symmetry adapted basis functions (ofs=  35)

Convergence Acceleration:
 AO-DIIS                CNVDIIS         .... on
   Start iteration      DIISMaxIt       ....    12
   Startup error        DIISStart       ....  0.200000
   # of expansion vecs  DIISMaxEq       ....     5
   Bias factor          DIISBfac        ....   1.050
   Max. coefficient     DIISMaxC        ....  10.000
 MO-DIIS                CNVKDIIS        .... off
 Trust-Rad. Augm. Hess. CNVTRAH         .... auto
   Auto Start mean grad. ratio tolernc. ....  1.125000
   Auto Start start iteration           ....    50
   Auto Start num. interpolation iter.  ....    10
   Max. Number of Micro iterations      ....    24
   Max. Number of Macro iterations      .... Maxiter - #DIIS iter
   Number of Davidson start vectors     ....     2
   Converg. threshold    (grad. norm)   ....   5.000e-05
   Grad. Scal. Fac. for Micro threshold ....   0.100
   Minimum threshold for Micro iter.    ....   1.000e-02
   NR start threshold (gradient norm)   ....   1.000e-04
   Initial trust radius                 ....   0.400
   Minimum AH scaling param. (alpha)    ....   1.000
   Maximum AH scaling param. (alpha)    .... 1000.000
   Quad. conv. algorithm                .... NR
   White noise on init. David. guess    .... on
   Maximum white noise                  ....   0.010
   Pseudo random numbers                .... off
   Inactive MOs                         .... canonical
   Orbital update algorithm             .... Taylor
   Preconditioner                       .... Diag
   Full preconditioner red. dimension   ....   250
 SOSCF                  CNVSOSCF        .... on
   Start iteration      SOSCFMaxIt      ....   150
   Startup grad/error   SOSCFStart      ....  0.003300
   Hessian update       SOSCFHessUp     .... L-BFGS
 Level Shifting         CNVShift        .... on
   Level shift para.    LevelShift      ....    0.2500
   Turn off err/grad.   ShiftErr        ....    0.0010
 Zerner damping         CNVZerner       .... off
 Static damping         CNVDamp         .... on
   Fraction old density DampFac         ....    0.7000
   Max. Damping (<1)    DampMax         ....    0.9800
   Min. Damping (>=0)   DampMin         ....    0.0000
   Turn off err/grad.   DampErr         ....    0.1000

SCF Procedure:
 Maximum # iterations   MaxIter         ....   125
 SCF integral mode      SCFMode         .... Direct
   Integral package                     .... SHARK and LIBINT hybrid scheme
 Reset frequency        DirectResetFreq ....    20
 Integral Threshold     Thresh          ....  1.000e-10 Eh
 Primitive CutOff       TCut            ....  1.000e-11 Eh

Convergence Tolerance:
 Convergence Check Mode ConvCheckMode   .... Total+1el-Energy
 Convergence forced     ConvForced      .... 0
 Energy Change          TolE            ....  1.000e-06 Eh
 1-El. energy change                    ....  1.000e-03 Eh
 Orbital Gradient       TolG            ....  5.000e-05
 Orbital Rotation angle TolX            ....  5.000e-05
 DIIS Error             TolErr          ....  1.000e-06

------------------------------
INITIAL GUESS: MODEL POTENTIAL
------------------------------
Loading Hartree-Fock densities                     ... done
Calculating cut-offs                               ... done
Initializing the effective Hamiltonian             ... done
Setting up the integral package (SHARK)            ... done
Starting the Coulomb interaction                   ... done (   0.0 sec)
Making the grid                                    ... done (   0.2 sec)
Mapping shells                                     ... done
Starting the XC term evaluation                    ... done (   0.0 sec)
done (   0.0 sec)
Diagonalizing the Hamiltonian                      ... done (   0.0 sec)
Back transforming the eigenvectors                 ... done (   0.0 sec)
Now organizing SCF variables                       ... done
Number of occupied orbitals per irrep:
  Ag   -   15
  Bg   -    3
  Au   -    2
  Bu   -   15
                      ------------------
                      INITIAL GUESS DONE (   0.2 sec)
                      ------------------
             **** ENERGY FILE WAS UPDATED (dvb_sp_hf.en.tmp) ****
Finished Guess after   0.7 sec
Maximum memory used throughout the entire GUESS-calculation: 8.5 MB


           ************************************************************
           *        Program running with 4 parallel MPI-processes     *
           *              working on a common directory               *
           ************************************************************

-------------------------------------------------------------------------------------------
                                      ORCA LEAN-SCF
                              memory conserving SCF solver
-------------------------------------------------------------------------------------------

----------------------------------------D-I-I-S--------------------------------------------
Iteration    Energy (Eh)           Delta-E    RMSDP     MaxDP     DIISErr   Damp  Time(sec)
-------------------------------------------------------------------------------------------
               ***  Starting incremental Fock matrix formation  ***
    1    -379.6437485277991755     0.00e+00  4.57e-03  4.12e-02  1.06e-01  0.700   0.1
    2    -379.6798505546292972    -3.61e-02  3.93e-03  3.55e-02  7.87e-02  0.700   0.1
                               ***Turning on AO-DIIS***
    3    -379.7061177181996072    -2.63e-02  2.83e-03  2.56e-02  5.53e-02  0.700   0.1
    4    -379.7246538288650299    -1.85e-02  6.74e-03  6.04e-02  3.91e-02  0.000   0.1
    5    -379.7688389694459374    -4.42e-02  3.36e-04  5.10e-03  3.84e-03  0.000   0.1
                              *** Initializing SOSCF ***
---------------------------------------S-O-S-C-F--------------------------------------
Iteration    Energy (Eh)           Delta-E    RMSDP     MaxDP     MaxGrad    Time(sec)
--------------------------------------------------------------------------------------
    6    -379.7689293448191847    -9.04e-05  1.84e-04  3.13e-03  2.16e-03     0.1
               *** Restarting incremental Fock matrix formation ***
    7    -379.7689550790232715    -2.57e-05  1.13e-04  1.82e-03  7.75e-04     0.1
    8    -379.7689617110164590    -6.63e-06  7.09e-05  1.21e-03  2.84e-04     0.1
    9    -379.7689628389332483    -1.13e-06  1.35e-05  1.47e-04  7.77e-05     0.1
   10    -379.7689629142016656    -7.53e-08  1.05e-06  1.53e-05  5.99e-06     0.1
                 **** Energy Check signals convergence ****

               *****************************************************
               *                     SUCCESS                       *
               *           SCF CONVERGED AFTER  10 CYCLES          *
               *****************************************************

             **** ENERGY FILE WAS UPDATED (dvb_sp_hf.en.tmp) ****

----------------
TOTAL SCF ENERGY
----------------

Total Energy       :       -379.76896291420167 Eh          -10334.03885 eV

Components:
Nuclear Repulsion  :        445.93697786986127 Eh           12134.56208 eV
Electronic Energy  :       -825.70594078406293 Eh          -22468.60093 eV
One Electron Energy:      -1400.22224776090684 Eh          -38101.98443 eV
Two Electron Energy:        574.51630697684391 Eh           15633.38350 eV

Virial components:
Potential Energy   :       -756.09902157661884 Eh          -20574.50036 eV
Kinetic Energy     :        376.33005866241717 Eh           10240.46151 eV
Virial Ratio       :          2.00913800046695

---------------
SCF CONVERGENCE
---------------

  Last Energy change         ...    7.5268e-08  Tolerance :   1.0000e-06
  Last MAX-Density change    ...    1.5291e-05  Tolerance :   1.0000e-05
  Last RMS-Density change    ...    1.0478e-06  Tolerance :   1.0000e-06
  Last DIIS Error            ...    2.1562e-03  Tolerance :   1.0000e-06
  Last Orbital Gradient      ...    5.9911e-06  Tolerance :   5.0000e-05
  Last Orbital Rotation      ...    1.1889e-05  Tolerance :   5.0000e-05


----------------
ORBITAL ENERGIES
----------------

  NO   OCC          E(Eh)            E(eV)    Irrep 
   0   2.0000     -11.040586      -300.4296    1-Bu
   1   2.0000     -11.040523      -300.4279    1-Ag
   2   2.0000     -11.031580      -300.1845    2-Bu
   3   2.0000     -11.031579      -300.1845    2-Ag
   4   2.0000     -11.028951      -300.1130    3-Bu
   5   2.0000     -11.028821      -300.1095    3-Ag
   6   2.0000     -11.028607      -300.1037    4-Bu
   7   2.0000     -11.028584      -300.1030    4-Ag
   8   2.0000     -11.017489      -299.8011    5-Bu
   9   2.0000     -11.017489      -299.8011    5-Ag
  10   2.0000      -1.090296       -29.6685    6-Ag
  11   2.0000      -1.020252       -27.7625    6-Bu
  12   2.0000      -0.974925       -26.5291    7-Ag
  13   2.0000      -0.950300       -25.8590    7-Bu
  14   2.0000      -0.909634       -24.7524    8-Bu
  15   2.0000      -0.799882       -21.7659    8-Ag
  16   2.0000      -0.762824       -20.7575    9-Ag
  17   2.0000      -0.727631       -19.7999    9-Bu
  18   2.0000      -0.696776       -18.9602   10-Ag
  19   2.0000      -0.628051       -17.0901   11-Ag
  20   2.0000      -0.605677       -16.4813   10-Bu
  21   2.0000      -0.572941       -15.5905   11-Bu
  22   2.0000      -0.553603       -15.0643   12-Bu
  23   2.0000      -0.553167       -15.0524   12-Ag
  24   2.0000      -0.525357       -14.2957   13-Bu
  25   2.0000      -0.496697       -13.5158   14-Bu
  26   2.0000      -0.492528       -13.4024   13-Ag
  27   2.0000      -0.463728       -12.6187    1-Au
  28   2.0000      -0.446430       -12.1480   15-Bu
  29   2.0000      -0.421652       -11.4737   14-Ag
  30   2.0000      -0.415619       -11.3096   15-Ag
  31   2.0000      -0.376962       -10.2576    1-Bg
  32   2.0000      -0.315127        -8.5750    2-Au
  33   2.0000      -0.278362        -7.5746    2-Bg
  34   2.0000      -0.222189        -6.0461    3-Bg
  35   0.0000       0.198995         5.4149    3-Au
  36   0.0000       0.268517         7.3067    4-Au
  37   0.0000       0.308826         8.4036    4-Bg
  38   0.0000       0.397078        10.8050    5-Au
  39   0.0000       0.521759        14.1978    5-Bg
  40   0.0000       0.565018        15.3749   16-Ag
  41   0.0000       0.575563        15.6619   16-Bu
  42   0.0000       0.621562        16.9136   17-Ag
  43   0.0000       0.625802        17.0289   17-Bu
  44   0.0000       0.658232        17.9114   18-Ag
  45   0.0000       0.659396        17.9431   18-Bu
*Only the first 10 virtual orbitals were printed.

                    ********************************
                    * MULLIKEN POPULATION ANALYSIS *
                    ********************************

-----------------------
MULLIKEN ATOMIC CHARGES
-----------------------
   0 C :    0.001813
   1 C :    0.001813
   2 C :   -0.059650
   3 C :   -0.059650
   4 C :   -0.060447
   5 C :   -0.060447
   6 H :    0.058704
   7 H :    0.058704
   8 H :    0.060599
   9 H :    0.060599
  10 C :   -0.055241
  11 C :   -0.055241
  12 H :    0.057635
  13 H :    0.057635
  14 C :   -0.123891
  15 C :   -0.123891
  16 H :    0.059020
  17 H :    0.059020
  18 H :    0.061458
  19 H :    0.061458
Sum of atomic charges:   -0.0000000

--------------------------------
MULLIKEN REDUCED ORBITAL CHARGES
--------------------------------
  0 C s       :     3.130467  s :     3.130467
      pz      :     0.991885  p :     2.867721
      px      :     0.930609
      py      :     0.945227

  1 C s       :     3.130467  s :     3.130467
      pz      :     0.991885  p :     2.867721
      px      :     0.930609
      py      :     0.945227

  2 C s       :     3.141361  s :     3.141361
      pz      :     1.002580  p :     2.918288
      px      :     0.950534
      py      :     0.965175

  3 C s       :     3.141361  s :     3.141361
      pz      :     1.002580  p :     2.918288
      px      :     0.950534
      py      :     0.965175

  4 C s       :     3.139367  s :     3.139367
      pz      :     1.001924  p :     2.921080
      px      :     0.958981
      py      :     0.960175

  5 C s       :     3.139367  s :     3.139367
      pz      :     1.001924  p :     2.921080
      px      :     0.958981
      py      :     0.960175

  6 H s       :     0.941296  s :     0.941296

  7 H s       :     0.941296  s :     0.941296

  8 H s       :     0.939401  s :     0.939401

  9 H s       :     0.939401  s :     0.939401

 10 C s       :     3.144222  s :     3.144222
      pz      :     0.994845  p :     2.911019
      px      :     0.937567
      py      :     0.978607

 11 C s       :     3.144222  s :     3.144222
      pz      :     0.994845  p :     2.911019
      px      :     0.937567
      py      :     0.978607

 12 H s       :     0.942365  s :     0.942365

 13 H s       :     0.942365  s :     0.942365

 14 C s       :     3.155369  s :     3.155369
      pz      :     1.008767  p :     2.968521
      px      :     0.979245
      py      :     0.980510

 15 C s       :     3.155369  s :     3.155369
      pz      :     1.008767  p :     2.968521
      px      :     0.979245
      py      :     0.980510

 16 H s       :     0.940980  s :     0.940980

 17 H s       :     0.940980  s :     0.940980

 18 H s       :     0.938542  s :     0.938542

 19 H s       :     0.938542  s :     0.938542



                     *******************************
                     * LOEWDIN POPULATION ANALYSIS *
                     *******************************

----------------------
LOEWDIN ATOMIC CHARGES
----------------------
   0 C :    0.008727
   1 C :    0.008727
   2 C :   -0.031695
   3 C :   -0.031695
   4 C :   -0.032216
   5 C :   -0.032216
   6 H :    0.028087
   7 H :    0.028087
   8 H :    0.030065
   9 H :    0.030065
  10 C :   -0.022813
  11 C :   -0.022813
  12 H :    0.027052
  13 H :    0.027052
  14 C :   -0.069668
  15 C :   -0.069668
  16 H :    0.030565
  17 H :    0.030565
  18 H :    0.031897
  19 H :    0.031897

-------------------------------
LOEWDIN REDUCED ORBITAL CHARGES
-------------------------------
  0 C s       :     3.027681  s :     3.027681
      pz      :     0.991043  p :     2.963593
      px      :     0.976278
      py      :     0.996272

  1 C s       :     3.027681  s :     3.027681
      pz      :     0.991043  p :     2.963593
      px      :     0.976278
      py      :     0.996272

  2 C s       :     3.025358  s :     3.025358
      pz      :     1.002863  p :     3.006338
      px      :     1.003086
      py      :     1.000389

  3 C s       :     3.025358  s :     3.025358
      pz      :     1.002863  p :     3.006338
      px      :     1.003086
      py      :     1.000389

  4 C s       :     3.023248  s :     3.023248
      pz      :     1.002288  p :     3.008968
      px      :     1.005173
      py      :     1.001507

  5 C s       :     3.023248  s :     3.023248
      pz      :     1.002288  p :     3.008968
      px      :     1.005173
      py      :     1.001507

  6 H s       :     0.971913  s :     0.971913

  7 H s       :     0.971913  s :     0.971913

  8 H s       :     0.969935  s :     0.969935

  9 H s       :     0.969935  s :     0.969935

 10 C s       :     3.027206  s :     3.027206
      pz      :     0.994269  p :     2.995607
      px      :     0.987802
      py      :     1.013536

 11 C s       :     3.027206  s :     3.027206
      pz      :     0.994269  p :     2.995607
      px      :     0.987802
      py      :     1.013536

 12 H s       :     0.972948  s :     0.972948

 13 H s       :     0.972948  s :     0.972948

 14 C s       :     3.024577  s :     3.024577
      pz      :     1.009537  p :     3.045091
      px      :     1.018310
      py      :     1.017243

 15 C s       :     3.024577  s :     3.024577
      pz      :     1.009537  p :     3.045091
      px      :     1.018310
      py      :     1.017243

 16 H s       :     0.969435  s :     0.969435

 17 H s       :     0.969435  s :     0.969435

 18 H s       :     0.968103  s :     0.968103

 19 H s       :     0.968103  s :     0.968103



                      *****************************
                      * MAYER POPULATION ANALYSIS *
                      *****************************

  NA   - Mulliken gross atomic population
  ZA   - Total nuclear charge
  QA   - Mulliken gross atomic charge
  VA   - Mayer's total valence
  BVA  - Mayer's bonded valence
  FA   - Mayer's free valence

  ATOM       NA         ZA         QA         VA         BVA        FA
  0 C      5.9982     6.0000     0.0018     3.9750     3.9750    -0.0000
  1 C      5.9982     6.0000     0.0018     3.9750     3.9750    -0.0000
  2 C      6.0596     6.0000    -0.0596     3.9733     3.9733    -0.0000
  3 C      6.0596     6.0000    -0.0596     3.9733     3.9733    -0.0000
  4 C      6.0604     6.0000    -0.0604     3.9741     3.9741    -0.0000
  5 C      6.0604     6.0000    -0.0604     3.9741     3.9741    -0.0000
  6 H      0.9413     1.0000     0.0587     0.9966     0.9966    -0.0000
  7 H      0.9413     1.0000     0.0587     0.9966     0.9966    -0.0000
  8 H      0.9394     1.0000     0.0606     0.9963     0.9963    -0.0000
  9 H      0.9394     1.0000     0.0606     0.9963     0.9963    -0.0000
 10 C      6.0552     6.0000    -0.0552     3.9722     3.9722    -0.0000
 11 C      6.0552     6.0000    -0.0552     3.9722     3.9722    -0.0000
 12 H      0.9424     1.0000     0.0576     0.9967     0.9967    -0.0000
 13 H      0.9424     1.0000     0.0576     0.9967     0.9967    -0.0000
 14 C      6.1239     6.0000    -0.1239     3.9707     3.9707    -0.0000
 15 C      6.1239     6.0000    -0.1239     3.9707     3.9707    -0.0000
 16 H      0.9410     1.0000     0.0590     0.9965     0.9965    -0.0000
 17 H      0.9410     1.0000     0.0590     0.9965     0.9965    -0.0000
 18 H      0.9385     1.0000     0.0615     0.9962     0.9962    -0.0000
 19 H      0.9385     1.0000     0.0615     0.9962     0.9962    -0.0000

  Mayer bond orders larger than 0.100000
B(  0-C ,  1-C ) :   0.1063 B(  0-C ,  2-C ) :   1.3819 B(  0-C ,  5-C ) :   1.3829 
B(  0-C , 11-C ) :   1.0412 B(  1-C ,  3-C ) :   1.3819 B(  1-C ,  4-C ) :   1.3829 
B(  1-C , 10-C ) :   1.0412 B(  2-C ,  3-C ) :   0.1029 B(  2-C ,  4-C ) :   1.4572 
B(  2-C ,  6-H ) :   0.9696 B(  3-C ,  5-C ) :   1.4572 B(  3-C ,  7-H ) :   0.9696 
B(  4-C ,  5-C ) :   0.1040 B(  4-C ,  8-H ) :   0.9686 B(  5-C ,  9-H ) :   0.9686 
B( 10-C , 12-H ) :   0.9677 B( 10-C , 14-C ) :   1.9305 B( 11-C , 13-H ) :   0.9677 
B( 11-C , 15-C ) :   1.9305 B( 14-C , 16-H ) :   0.9738 B( 14-C , 18-H ) :   0.9758 
B( 15-C , 17-H ) :   0.9738 B( 15-C , 19-H ) :   0.9758 

-------
TIMINGS
-------

Total SCF time: 0 days 0 hours 0 min 1 sec 

Total time                  ....       1.700 sec
Sum of individual times     ....       1.662 sec  ( 97.8%)

SCF preparation             ....       0.433 sec  ( 25.5%)
Fock matrix formation       ....       1.143 sec  ( 67.3%)
  Startup                   ....       0.005 sec  (  0.5% of F)
  Coulomb+Exchange Fock     ....       1.126 sec  ( 98.5% of F)
Diagonalization             ....       0.000 sec  (  0.0%)
Density matrix formation    ....       0.010 sec  (  0.6%)
Total Energy calculation    ....       0.007 sec  (  0.4%)
Population analysis         ....       0.008 sec  (  0.5%)
Orbital Transformation      ....       0.007 sec  (  0.4%)
Orbital Orthonormalization  ....       0.000 sec  (  0.0%)
DIIS solution               ....       0.038 sec  (  2.2%)
SOSCF solution              ....       0.016 sec  (  0.9%)
Finished LeanSCF after   1.7 sec

Maximum memory used throughout the entire LEANSCF-calculation: 5.2 MB

-------------------------   --------------------
FINAL SINGLE POINT ENERGY      -379.768962914202
-------------------------   --------------------



           ************************************************************
           *        Program running with 4 parallel MPI-processes     *
           *              working on a common directory               *
           ************************************************************

------------------------------------------------------------------------------
                              ORCA PROPERTY CALCULATIONS
------------------------------------------------------------------------------

GBWName                                 ... dvb_sp_hf.gbw
Number of atoms                         ...     20
Number of basis functions               ...     60
Max core memory                         ...    700 MB

Electric properties:
Dipole moment                           ... YES
Quadrupole moment                       ...  NO
Static polarizability (Dipole/Dipole)   ...  NO
Static polarizability (Dipole/Quad.)    ...  NO
Static polarizability (Quad./Quad.)     ...  NO
Static polarizability (Velocity)        ...  NO

Atomic electric properties:
Dipole moment                           ...  NO
Quadrupole moment                       ...  NO
Static polarizability                   ...  NO

Choice of electric origin               ... Center of mass
Position of electric origin             ...     0.000000     0.000000     0.000000

General magnetic properties:
Magnetizability                         ...  NO

EPR properties:
g-Tensor (aka g-matrix)                 ...  NO
Zero-Field splitting spin-orbit         ...  NO
Zero-field splitting spin-spin          ...  NO
Hyperfine couplings                     ...  NO (   0 nuclei)
Quadrupole couplings                    ...  NO (   0 nuclei)
Contact density                         ...  NO (   0 nuclei)

NMR properties:
Chemical shifts                         ...  NO (   0 nuclei)
Spin-rotation constants                 ...  NO (   0 nuclei)
Spin-spin couplings                     ...  NO (   0 nuclei,    0 pairs)

Choice of magnetic origin               ... GIAO
Position of magnetic origin             ...     0.000000     0.000000     0.000000

Properties with geometric perturbations:
SCF Hessian                             ...  NO
IR spectrum                             ...  NO
VCD spectrum                            ...  NO
X-ray spectroscopy properties:
SCF XES/XAS/RIXS spectra                ...  NO


-------------
DIPOLE MOMENT
-------------

Method             : SCF
Type of density    : Electron Density
Multiplicity       :   1
Irrep              :   0
Energy             :  -379.7689629142016656 Eh
Relativity type    : 
Basis              : AO
                                X                 Y                 Z
Electronic contribution:      0.000000000      -0.000000000      -0.000000000
Nuclear contribution   :      0.000000000       0.000000000       0.000000000
                        -----------------------------------------
Total Dipole Moment    :      0.000000000      -0.000000000      -0.000000000
                        -----------------------------------------
Magnitude (a.u.)       :      0.000000000
Magnitude (Debye)      :      0.000000000



--------------------
Rotational spectrum 
--------------------
 
Rotational constants in cm-1:             0.153923             0.022856             0.019901 
Rotational constants in MHz :          4614.497946           685.205544           596.614430 

Dipole components along the rotational axes: 
x,y,z [a.u.] :    -0.000000    -0.000000    -0.000000 
x,y,z [Debye]:    -0.000000    -0.000000    -0.000000 

 

Dipole moment calculation done in   0.0 sec 

Maximum memory used throughout the entire PROP-calculation: 2.5 MB

--------------------------------
SUGGESTED CITATIONS FOR THIS RUN
--------------------------------

Below you find a list of papers that are relevant to this ORCA run
We neither can nor want to force you to cite these papers, but we appreciate if you do
You receive ORCA, which is the product of decades of hard work by many enthusiastic individuals, for free
The only thing we kindly ask in return is that you cite our papers,
We deeply appreciate it, if you show your appreciation for ORCA by not just citing the generic ORCA reference.

Please note that relegating all ORCA citations to the supporting information does *not* help us.
SI sections are not indexed - citations you put there will not count into any citation statistics
But we need these citations in order to attract the funding resources that allow us to do what we are doing

Therefore, if you are a happy ORCA user, please consider citing a few of the papers listed below in the main body of your paper

In addition to the list printed below, the program has created the file dvb_sp_hf.bibtex that contains the list in bibtex format
You can import this file easily into all common literature databanks and citation aid programs


List of essential papers. We consider these as the minimum necessary citations

  1. Neese,F.
     Software update: the ORCA program system, version 5.0
     WIRES Comput. Molec. Sci., 2022 12(1)e1606
     doi.org/10.1002/wcms.1606

List of papers to cite with high priority. The work reported in these papers was absolutely
necessary for this run to complete.
Our perspective: the developers of density functionals and basis sets usually get cited in chemistry papers
Good! But without the algorithms to do something with them, the functionals or basis sets would not do anything.
Hence, in our opinion, the algorithm design and method developments papers are equally worthy of getting cited

  1. Neese,F.
     The SHARK Integral Generation and Digestion System
     J. Comp. Chem., 2022  1-16
     doi.org/10.1002/jcc.26942

List of suggested additional citations. These are papers that are important in the 'surrounding' of 
of this run, or papers that preceded the highly important papers. If you like your results we are grateful for a citation.

  1. Neese,F.
     The ORCA program system
     WIRES Comput. Molec. Sci., 2012 2(1)73-78
     doi.org/10.1002/wcms.81
  2. Neese,F.
     Software update: the ORCA program system, version 4.0
     WIRES Comput. Molec. Sci., 2018 8(1)1-6
     doi.org/10.1002/wcms.1327
  3. Neese,F.; Wennmohs,F.; Becker,U.; Riplinger,C.
     The ORCA quantum chemistry program package
     J. Chem. Phys., 2020 152 Art. No. L224108
     doi.org/10.1063/5.0004608

List of optional additional citations

  1. Neese,F.
     Approximate second-order SCF convergence for spin unrestricted wavefunctions
     Chem. Phys. Lett., 2000 325(1-3)93-98
     doi.org/10.1016/s0009-2614(00)00662-x

Timings for individual modules:

Sum of individual times          ...        5.387 sec (=   0.090 min)
Startup calculation              ...        1.606 sec (=   0.027 min)  29.8 %
SCF iterations                   ...        3.021 sec (=   0.050 min)  56.1 %
Property calculations            ...        0.760 sec (=   0.013 min)  14.1 %
                             ****ORCA TERMINATED NORMALLY****
TOTAL RUN TIME: 0 days 0 hours 0 minutes 6 seconds 184 msec
