
                                 *****************
                                 * O   R   C   A *
                                 *****************

                                            #,                                       
                                            ###                                      
                                            ####                                     
                                            #####                                    
                                            ######                                   
                                           ########,                                 
                                     ,,################,,,,,                         
                               ,,#################################,,                 
                          ,,##########################################,,             
                       ,#########################################, ''#####,          
                    ,#############################################,,   '####,        
                  ,##################################################,,,,####,       
                ,###########''''           ''''###############################       
              ,#####''   ,,,,##########,,,,          '''####'''          '####       
            ,##' ,,,,###########################,,,                        '##       
           ' ,,###''''                  '''############,,,                           
         ,,##''                                '''############,,,,        ,,,,,,###''
      ,#''                                            '''#######################'''  
     '                                                          ''''####''''         
             ,#######,   #######,   ,#######,      ##                                
            ,#'     '#,  ##    ##  ,#'     '#,    #''#        ,####,   ,####,        
            ##       ##  ##   ,#'  ##            #'  '#       #'       #'  '#        
            ##       ##  #######   ##           ,######,      #####,   #    #        
            '#,     ,#'  ##    ##  '#,     ,#' ,#      #,     #,   #   #,  ,#        
             '#######'   ##     ##  '#######'  #'      '#     '####' # '####'        



                #########################################################
                #                        -***-                          #
                #          Department of theory and spectroscopy        #
                #                                                       #
                #                      Frank Neese                      #
                #                                                       #
                #     Directorship, Architecture, Infrastructure        #
                #                    SHARK, DRIVERS                     #
                #        Core code/Algorithms in most modules           #
                #                                                       #
                #        Max Planck Institute fuer Kohlenforschung      #
                #                Kaiser Wilhelm Platz 1                 #
                #                 D-45470 Muelheim/Ruhr                 #
                #                      Germany                          #
                #                                                       #
                #                  All rights reserved                  #
                #                        -***-                          #
                #########################################################


                         Program Version 6.0.1  -  RELEASE   -


 With contributions from (in alphabetic order):
[Max-Planck-Institut fuer Kohlenforschung]                               
  Daniel Aravena         : Magnetic Suceptibility                        
  Michael Atanasov       : Ab Initio Ligand Field Theory (pilot matlab implementation)
  Alexander A. Auer      : GIAO ZORA, VPT2 properties, NMR spectrum      
  Ute Becker             : All parallelization in ORCA, NUMFREQ, NUMCALC 
  Giovanni Bistoni       : ED, misc. LED, open-shell LED, HFLD           
  Martin Brehm           : Molecular dynamics                            
  Dmytro Bykov           : pre 5.0 version of the SCF Hessian            
  Marcos Casanova-Páez   : Triplet and SCS-CIS(D). UHF-(DLPNO)-IP/EA/STEOM-CCSD. UHF-CVS-IP/STEOM-CCSD   
  Vijay G. Chilkuri      : MRCI spin determinant printing, contributions to CSF-ICE 
  Pauline Colinet        : FMM embedding                                 
  Dipayan Datta          : RHF DLPNO-CCSD density                        
  Achintya Kumar Dutta   : EOM-CC, STEOM-CC                              
  Nicolas Foglia         : Exact transition moments, OPA infrastructure, MCD improvements    
  Dmitry Ganyushin       : Spin-Orbit,Spin-Spin,Magnetic field MRCI      
  Miquel Garcia-Rates    : C-PCM and meta-GGA Hessian, CCSD/C-PCM, Gaussian charge scheme 
  Tiago L. C. Gouveia    : GS-ROHF, GS-ROCIS                             
  Yang Guo               : DLPNO-NEVPT2, F12-NEVPT2, CIM, IAO-localization        
  Andreas Hansen         : Spin unrestricted coupled pair/coupled cluster methods 
  Ingolf Harden          : AUTO-CI MPn and infrastructure                
  Benjamin Helmich-Paris : MC-RPA, TRAH-(SCF,CASSCF), AVAS, COSX integrals, SCF dyn. polar. 
  Lee Huntington         : MR-EOM, pCC                                   
  Robert Izsak           : Overlap fitted RIJCOSX, COSX-SCS-MP3, EOM     
  Riya Kayal             : Wick's Theorem for AUTO-CI, AUTO-CI UHF-CCSDT 
  Emily Kempfer          : AUTO-CI, RHF CISDT and CCSDT                  
  Christian Kollmar      : KDIIS, OOCD, Brueckner-CCSD(T), CCSD density, CASPT2, CASPT2-K, improved NEVPT2 
  Axel Koslowski         : Symmetry handling                             
  Simone Kossmann        : meta-GGA functionals, TD-DFT gradient, OOMP2, (MP2 Hessian; deprecated post 5.0) 
  Lucas Lang             : DCDCAS                                        
  Marvin Lechner         : AUTO-CI (C++ implementation), FIC-MRCC        
  Spencer Leger          : CASSCF response                               
  Dagmar Lenk            : GEPOL surface, SMD, ORCA-2-JSON               
  Dimitrios Liakos       : Extrapolation schemes; Compound Job, initial MDCI parallelization 
  Dimitrios Manganas     : Further ROCIS development; embedding schemes. LFT, Crystal Embedding 
  Dimitrios Pantazis     : SARC Basis sets                               
  Anastasios Papadopoulos: AUTO-CI, single reference methods and gradients 
  Taras Petrenko         : pre 6.0 DFT Hessian and TD-DFT gradient, (ASA, deprecated), ECA, 1-Electron XAS/XES, NRVS 
  Peter Pinski           : DLPNO-MP2, DLPNO-MP2 Gradient                 
  Christoph Reimann      : Effective Core Potentials                     
  Marius Retegan         : Local ZFS, SOC                                
  Christoph Riplinger    : Optimizer, TS searches, QM/MM, DLPNO-CCSD(T), (RO)-DLPNO pert. Triples 
  Michael Roemelt        : Original ROCIS implementation                 
  Masaaki Saitow         : Open-shell DLPNO-CCSD energy and density      
  Barbara Sandhoefer     : DKH picture change effects                    
  Kantharuban Sivalingam : CASSCF convergence/infrastructure, NEVPT2 and variants, FIC-MRCI 
  Bernardo de Souza      : ESD, SOC TD-DFT                               
  Georgi L. Stoychev     : AutoAux, RI-MP2 NMR, DLPNO-MP2 response, X2C  
  Van Anh Tran           : RI-MP2 g-tensors                              
  Willem Van den Heuvel  : Paramagnetic NMR                              
  Zikuan Wang            : NOTCH, Electric field optimization            
  Frank Wennmohs         : Technical directorship and infrastructure     
  Hang Xu                : AUTO-CI-Response properties                   
                                                                         
[FACCTs GmbH]                                                            
  Markus Bursch, Miquel Garcia-Rates, Christoph Riplinger, Bernardo de Souza, Georgi L. Stoychev 
                                                                 
  APM, Basis sets (HGBS, AHGBS, def-TZVP (Ac-Lr), def2-XVPD (La-Lu)), CI-OPT, improved COSX, DLPNO-Multilevel,           
  DOCKER, DRACO, updates on ESD, GOAT, IRC, LR-CPCM, MBIS, meta-GGA TD-DFT gradient, ML-optimized integration grids, 
  MM, NACMEs, nearIR, NEB, NEB-TS, NL-DFT gradient (VV10), 2- and 3-layer-ONIOM, interface openCOSMO-RS, QMMM,   
  Crystal-QMMM, SF, symmetry and pop. for TD-DFT, r2SCAN hybrids, SOLVATOR                                   
                                                                         
[Other institutions]                                                     
  V. Asgeirsson          : NEB                                           
  Christoph Bannwarth    : sTDA-DFT, sTD-DFT, PBEh-3c, B97-3c, D3        
  Sebastian Ehlert       : rSCAN, r2SCAN, r2SCAN-3c, D4, dhf basis sets  
  Marvin Friede          : D4 for Fr, Ra, Ac-Lr                          
  Lars Goerigk           : TD-DFT with DH, B97 family of functionals     
  Stefan Grimme          : VdW corrections, initial TS optimization, DFT functionals, gCP, sTDA/sTD-DF 
  Waldemar Hujo          : DFT-NL                                        
  H. Jonsson             : NEB                                           
  Holger Kruse           : gCP                                           
  Marcel Mueller         : wB97X-3c, vDZP basis set                      
  Hagen Neugebauer       : wr2SCAN                                       
  Tobias Risthaus        : range-separated hybrid DFT                    
  Lukas Wittmann         : regularized MP2, r2SCAN double-hybrids, wr2SCAN        
                                                                         
We gratefully acknowledge several colleagues who have allowed us to      
interface, adapt or use parts of their codes:                            
  Ed Valeev, F. Pavosevic, A. Kumar             : LibInt (2-el integral package), F12 methods 
  Garnet Chan, S. Sharma, J. Yang, R. Olivares  : DMRG                   
  Ulf Ekstrom                                   : XCFun DFT Library      
  Mihaly Kallay                                 : mrcc  (arbitrary order and MRCC methods)
  Frank Weinhold                                : gennbo (NPA and NBO analysis)           
  Simon Mueller                                 : openCOSMO-RS                            
  Christopher J. Cramer and Donald G. Truhlar   : smd solvation model                     
  S Lehtola, MJT Oliveira, MAL Marques          : LibXC Library                           
  Liviu Ungur et al                             : ANISO software                          


 Your calculation uses the libint2 library for the computation of 2-el integrals
 For citations please refer to: http://libint.valeyev.net

 Your ORCA version has been built with support for libXC version: 6.2.2
 For citations please refer to: https://libxc.gitlab.io

 This ORCA versions uses:
   CBLAS   interface :  Fast vector & matrix operations
   LAPACKE interface :  Fast linear algebra routines
   SCALAPACK package :  Parallel linear algebra routines
   Shared memory     :  Shared parallel matrices
   BLAS/LAPACK       :  OpenBLAS 0.3.27  USE64BITINT DYNAMIC_ARCH NO_AFFINITY SapphireRapids SINGLE_THREADED
        Core in use  :  SapphireRapids
   Copyright (c) 2011-2014, The OpenBLAS Project


NOTE: MaxCore=2000 MB was set to SCF,MP2,MDCI,CIPSI,MRCI and CIS
      => If you want to overwrite this, your respective input block should be placed after the MaxCore statement
================================================================================

----- Orbital basis set information -----
Your calculation utilizes the basis: STO-3G
   H-Ne       : W. J. Hehre, R. F. Stewart and J. A. Pople, J. Chem. Phys. 2657 (1969).
   Na-Ar      : W. J. Hehre, R. Ditchfield, R. F. Stewart and J. A. Pople, J. Chem. Phys. 2769 (1970).
   K,Ca,Ga-Kr : W. J. Pietro, B. A. Levy, W. J. Hehre and R. F. Stewart, J. Am. Chem. Soc. 19, 2225 (1980).
   Sc-Zn,Y-Cd : W. J. Pietro and W. J. Hehre, J. Comp. Chem. 4, 241 (1983).

================================================================================
                                        WARNINGS
                       Please study these warnings very carefully!
================================================================================


================================================================================
                                       INPUT FILE
================================================================================
NAME = dvp_uhr_sto3g.inp
|  1> !  hf sto-3g usesym sp uks
|  2> 
|  3> %output
|  4>  printlevel normal
|  5>  print[ p_basis ] 2
|  6>  print[ p_mos ] 1
|  7>  print[ p_overlap ] 1
|  8>  print[ p_hirshfeld ] 1
|  9>  end 
| 10> 
| 11> * xyz 1 2
| 12> C            -1.41525000     0.23022000     0.00000000
| 13> C             1.41525000    -0.23022000     0.00000000
| 14> C            -0.49513000     1.31446000     0.00000000
| 15> C             0.49513000    -1.31446000     0.00000000
| 16> C             0.88941000     1.09095000     0.00000000
| 17> C            -0.88941000    -1.09095000     0.00000000
| 18> H            -0.87955000     2.34373000     0.00000000
| 19> H             0.87955000    -2.34373000     0.00000000
| 20> H             1.57790000     1.94501000     0.00000000
| 21> H            -1.57790000    -1.94501000     0.00000000
| 22> C             2.88458000    -0.52109000     0.00000000
| 23> C            -2.88458000     0.52109000     0.00000000
| 24> H             3.14034000    -1.59196000     0.00000000
| 25> H            -3.14034000     1.59196000     0.00000000
| 26> C             3.88004000     0.38225000     0.00000000
| 27> C            -3.88004000    -0.38225000     0.00000000
| 28> H             3.69468000     1.46244000     0.00000000
| 29> H            -3.69468000    -1.46244000     0.00000000
| 30> H             4.93164000     0.07111000     0.00000000
| 31> H            -4.93164000    -0.07111000     0.00000000
| 32> *
| 33> %pal
| 34>  nprocs 4
| 35> end
| 36> %MaxCore 2000
| 37> 
| 38>                          ****END OF INPUT****
================================================================================
-----------------------
SYMMETRY HANDLING SETUP
-----------------------
Auto-detected point group .... C2h
Reduced point group       .... C2h
Root mean square distance .... 0.000000000000000 au
Maximum distance          .... 0.000000000000000 au
Threshold in use          .... 0.000100000000000 au
Time for symmetry setup   .... 0.011 s


Symmetry-perfected Cartesians for point group C2h:

Index  Symbol         Symmetry-perfected Cartesians (x, y, z; au)
   0     C      -2.67443491103205    0.43505275055135    0.00000000000000
   1     C       2.67443491103205   -0.43505275055135    0.00000000000000
   2     C      -0.93566010068843    2.48396941399413    0.00000000000000
   3     C       0.93566010068843   -2.48396941399413    0.00000000000000
   4     C       1.68074132077090    2.06159672580139    0.00000000000000
   5     C      -1.68074132077090   -2.06159672580139    0.00000000000000
   6     H      -1.66210862109044    4.42900783185526    0.00000000000000
   7     H       1.66210862109044   -4.42900783185526    0.00000000000000
   8     H       2.98179886671434    3.67553622773817    0.00000000000000
   9     H      -2.98179886671434   -3.67553622773817    0.00000000000000
  10     C       5.45106621138656   -0.98471739112503    0.00000000000000
  11     C      -5.45106621138656    0.98471739112503    0.00000000000000
  12     H       5.93438256739826   -3.00836841615728    0.00000000000000
  13     H      -5.93438256739826    3.00836841615728    0.00000000000000
  14     C       7.33221298865981    0.72234781469140    0.00000000000000
  15     C      -7.33221298865981   -0.72234781469140    0.00000000000000
  16     H       6.98193335247617    2.76361108729180    0.00000000000000
  17     H      -6.98193335247617   -2.76361108729180    0.00000000000000
  18     H       9.31944899109140    0.13437842538314    0.00000000000000
  19     H      -9.31944899109140   -0.13437842538314    0.00000000000000

Index  Symbol         Symmetry-perfected Cartesians (x, y, z; Ang)
   0     C      -1.41525000000000    0.23022000000000    0.00000000000000
   1     C       1.41525000000000   -0.23022000000000    0.00000000000000
   2     C      -0.49513000000000    1.31446000000000    0.00000000000000
   3     C       0.49513000000000   -1.31446000000000    0.00000000000000
   4     C       0.88941000000000    1.09095000000000    0.00000000000000
   5     C      -0.88941000000000   -1.09095000000000    0.00000000000000
   6     H      -0.87955000000000    2.34373000000000    0.00000000000000
   7     H       0.87955000000000   -2.34373000000000    0.00000000000000
   8     H       1.57790000000000    1.94501000000000    0.00000000000000
   9     H      -1.57790000000000   -1.94501000000000    0.00000000000000
  10     C       2.88458000000000   -0.52109000000000    0.00000000000000
  11     C      -2.88458000000000    0.52109000000000    0.00000000000000
  12     H       3.14034000000000   -1.59196000000000    0.00000000000000
  13     H      -3.14034000000000    1.59196000000000    0.00000000000000
  14     C       3.88004000000000    0.38225000000000    0.00000000000000
  15     C      -3.88004000000000   -0.38225000000000    0.00000000000000
  16     H       3.69468000000000    1.46244000000000    0.00000000000000
  17     H      -3.69468000000000   -1.46244000000000    0.00000000000000
  18     H       4.93164000000000    0.07111000000000    0.00000000000000
  19     H      -4.93164000000000   -0.07111000000000    0.00000000000000

                       ****************************
                       * Single Point Calculation *
                       ****************************

---------------------------------
CARTESIAN COORDINATES (ANGSTROEM)
---------------------------------
  C     -1.415250    0.230220    0.000000
  C      1.415250   -0.230220    0.000000
  C     -0.495130    1.314460    0.000000
  C      0.495130   -1.314460    0.000000
  C      0.889410    1.090950    0.000000
  C     -0.889410   -1.090950    0.000000
  H     -0.879550    2.343730    0.000000
  H      0.879550   -2.343730    0.000000
  H      1.577900    1.945010    0.000000
  H     -1.577900   -1.945010    0.000000
  C      2.884580   -0.521090    0.000000
  C     -2.884580    0.521090    0.000000
  H      3.140340   -1.591960    0.000000
  H     -3.140340    1.591960    0.000000
  C      3.880040    0.382250    0.000000
  C     -3.880040   -0.382250    0.000000
  H      3.694680    1.462440    0.000000
  H     -3.694680   -1.462440    0.000000
  H      4.931640    0.071110    0.000000
  H     -4.931640   -0.071110    0.000000

----------------------------
CARTESIAN COORDINATES (A.U.)
----------------------------
  NO LB      ZA    FRAG     MASS         X           Y           Z
   0 C     6.0000    0    12.011   -2.674435    0.435053    0.000000
   1 C     6.0000    0    12.011    2.674435   -0.435053    0.000000
   2 C     6.0000    0    12.011   -0.935660    2.483969    0.000000
   3 C     6.0000    0    12.011    0.935660   -2.483969    0.000000
   4 C     6.0000    0    12.011    1.680741    2.061597    0.000000
   5 C     6.0000    0    12.011   -1.680741   -2.061597    0.000000
   6 H     1.0000    0     1.008   -1.662109    4.429008    0.000000
   7 H     1.0000    0     1.008    1.662109   -4.429008    0.000000
   8 H     1.0000    0     1.008    2.981799    3.675536    0.000000
   9 H     1.0000    0     1.008   -2.981799   -3.675536    0.000000
  10 C     6.0000    0    12.011    5.451066   -0.984717    0.000000
  11 C     6.0000    0    12.011   -5.451066    0.984717    0.000000
  12 H     1.0000    0     1.008    5.934383   -3.008368    0.000000
  13 H     1.0000    0     1.008   -5.934383    3.008368    0.000000
  14 C     6.0000    0    12.011    7.332213    0.722348    0.000000
  15 C     6.0000    0    12.011   -7.332213   -0.722348    0.000000
  16 H     1.0000    0     1.008    6.981933    2.763611    0.000000
  17 H     1.0000    0     1.008   -6.981933   -2.763611    0.000000
  18 H     1.0000    0     1.008    9.319449    0.134378    0.000000
  19 H     1.0000    0     1.008   -9.319449   -0.134378    0.000000

--------------------------------
INTERNAL COORDINATES (ANGSTROEM)
--------------------------------
 C      0   0   0     0.000000000000     0.00000000     0.00000000
 C      1   0   0     2.867705571289     0.00000000     0.00000000
 C      1   2   0     1.422039799724    58.92044775     0.00000000
 C      2   1   3     1.422039799724    58.92044775   180.00000000
 C      3   1   2     1.402464877172   121.14868209     0.00000000
 C      4   2   1     1.402464877172   121.14868209     0.00000000
 H      3   1   2     1.098715372287   119.20096435   180.00000085
 H      4   2   1     1.098715372287   119.20096435   180.00000085
 H      5   3   1     1.097012745459   119.70330166   180.00000085
 H      6   4   2     1.097012745459   119.70330166   180.00000085
 C      2   1   3     1.497843785513   178.04187185   180.00000000
 C      1   2   3     1.497843785513   178.04187185     0.00000000
 H     11   2   5     1.100988526053   114.63009424   180.00000000
 H     12   1   6     1.100988526053   114.63009424   180.00000000
 C     11   2   5     1.344233524057   126.57996405     0.00000000
 C     12   1   6     1.344233524057   126.57996405     0.00000000
 H     15  11   2     1.095978451294   122.48539266     0.00000000
 H     16  12   1     1.095978451294   122.48539266     0.00000000
 H     15  11   2     1.096663421292   121.29545771   180.00000085
 H     16  12   1     1.096663421292   121.29545771   180.00000085

---------------------------
INTERNAL COORDINATES (A.U.)
---------------------------
 C      0   0   0     0.000000000000     0.00000000     0.00000000
 C      1   0   0     5.419178162456     0.00000000     0.00000000
 C      1   2   0     2.687265773015    58.92044775     0.00000000
 C      2   1   3     2.687265773015    58.92044775   180.00000000
 C      3   1   2     2.650274530298   121.14868209     0.00000000
 C      4   2   1     2.650274530298   121.14868209     0.00000000
 H      3   1   2     2.076271152752   119.20096435   180.00000085
 H      4   2   1     2.076271152752   119.20096435   180.00000085
 H      5   3   1     2.073053654339   119.70330166   180.00000085
 H      6   4   2     2.073053654339   119.70330166   180.00000085
 C      2   1   3     2.830514546016   178.04187185   180.00000000
 C      1   2   3     2.830514546016   178.04187185     0.00000000
 H     11   2   5     2.080566790829   114.63009424   180.00000000
 H     12   1   6     2.080566790829   114.63009424   180.00000000
 C     11   2   5     2.540233220504   126.57996405     0.00000000
 C     12   1   6     2.540233220504   126.57996405     0.00000000
 H     15  11   2     2.071099121624   122.48539266     0.00000000
 H     16  12   1     2.071099121624   122.48539266     0.00000000
 H     15  11   2     2.072393527331   121.29545771   180.00000085
 H     16  12   1     2.072393527331   121.29545771   180.00000085

---------------------
BASIS SET INFORMATION
---------------------
There are 2 groups of distinct atoms

 Group   1 Type C   : 6s3p contracted to 2s1p pattern {33/3}
 Group   2 Type H   : 3s contracted to 1s pattern {3}

Atom   0C    basis set group =>   1
Atom   1C    basis set group =>   1
Atom   2C    basis set group =>   1
Atom   3C    basis set group =>   1
Atom   4C    basis set group =>   1
Atom   5C    basis set group =>   1
Atom   6H    basis set group =>   2
Atom   7H    basis set group =>   2
Atom   8H    basis set group =>   2
Atom   9H    basis set group =>   2
Atom  10C    basis set group =>   1
Atom  11C    basis set group =>   1
Atom  12H    basis set group =>   2
Atom  13H    basis set group =>   2
Atom  14C    basis set group =>   1
Atom  15C    basis set group =>   1
Atom  16H    basis set group =>   2
Atom  17H    basis set group =>   2
Atom  18H    basis set group =>   2
Atom  19H    basis set group =>   2

-------------------------
BASIS SET IN INPUT FORMAT
-------------------------

 # Basis set for element : H 
 NewGTO H 
 S 3 
   1       3.4252509100      0.1543289707
   2       0.6239137300      0.5353281424
   3       0.1688554000      0.4446345420
  end;

 # Basis set for element : C 
 NewGTO C 
 S 3 
   1      71.6168370000      0.1543289700
   2      13.0450960000      0.5353281400
   3       3.5305122000      0.4446345400
 S 3 
   1       2.9412494000     -0.0999672301
   2       0.6834831000      0.3995128303
   3       0.2222899000      0.7001154705
 P 3 
   1       2.9412494000      0.1559162721
   2       0.6834831000      0.6076837282
   3       0.2222899000      0.3919573953
  end;



           ************************************************************
           *        Program running with 4 parallel MPI-processes     *
           *              working on a common directory               *
           ************************************************************
------------------------------------------------------------------------------
                             ORCA STARTUP CALCULATIONS
------------------------------------------------------------------------------
------------------------------------------------------------------------------
                   ___                                                        
                  /   \      - P O W E R E D   B Y -                         
                 /     \                                                     
                 |  |  |   _    _      __       _____    __    __             
                 |  |  |  | |  | |    /  \     |  _  \  |  |  /  |          
                  \  \/   | |  | |   /    \    | | | |  |  | /  /          
                 / \  \   | |__| |  /  /\  \   | |_| |  |  |/  /          
                |  |  |   |  __  | /  /__\  \  |    /   |      \           
                |  |  |   | |  | | |   __   |  |    \   |  |\   \          
                \     /   | |  | | |  |  |  |  | |\  \  |  | \   \       
                 \___/    |_|  |_| |__|  |__|  |_| \__\ |__|  \__/        
                                                                              
                      - O R C A' S   B I G   F R I E N D -                    
                                      &                                       
                       - I N T E G R A L  F E E D E R -                       
                                                                              
 v1 FN, 2020, v2 2021, v3 2022-2024                                           
------------------------------------------------------------------------------


----------------------
SHARK INTEGRAL PACKAGE
----------------------

Number of atoms                             ...     20
Number of basis functions                   ...     60
Number of shells                            ...     40
Maximum angular momentum                    ...      1
Integral batch strategy                     ... SHARK/LIBINT Hybrid
RI-J (if used) integral strategy            ... SPLIT-RIJ (Revised 2003 algorithm where possible)
Printlevel                                  ...      1
Contraction scheme used                     ... SEGMENTED contraction
Prescreening option                         ... SCHWARTZ
   Thresh                                   ... 1.000e-10
   Tcut                                     ... 1.000e-11
   Tpresel                                  ... 1.000e-11 
Coulomb Range Separation                    ... NOT USED
Exchange Range Separation                   ... NOT USED
Multipole approximations                    ... NOT USED
Finite Nucleus Model                        ... NOT USED
CABS basis                                  ... NOT available
Auxiliary Coulomb fitting basis             ... NOT available
Auxiliary J/K fitting basis                 ... NOT available
Auxiliary Correlation fitting basis         ... NOT available
Auxiliary 'external' fitting basis          ... NOT available

Checking pre-screening integrals            ... done (  0.0 sec) Dimension = 40
Check shell pair data                       ... done (  0.0 sec)
Shell pair information
Shell pair cut-off parameter TPreSel        ...   1.0e-11
Total number of shell pairs                 ...       820
Shell pairs after pre-screening             ...       750
Total number of primitive shell pairs       ...      7380
Primitive shell pairs kept                  ...      4803
          la=0 lb=0:    405 shell pairs
          la=1 lb=0:    290 shell pairs
          la=1 lb=1:     55 shell pairs

Calculating one electron integrals          ... done (  0.0 sec)
Calculating Nuclear repulsion               ... done (  0.0 sec) ENN=    445.937320829021 Eh

Diagonalization of the overlap matrix:
Smallest eigenvalue                        ... 1.815e-01
Time for diagonalization                   ...    0.002 sec
Threshold for overlap eigenvalues          ... 1.000e-07
Number of eigenvalues below threshold      ... 0
Time for construction of square roots      ...    0.008 sec
Total time needed                          ...    0.024 sec

-------------------
DFT GRID GENERATION
-------------------

General Integration Accuracy     IntAcc      ... 4.388
Radial Grid Type                 RadialGrid  ... OptM3 with GC (2021)
Angular Grid (max. ang.)         AngularGrid ... 4 (Lebedev-302)
Angular grid pruning method      GridPruning ... 4 (adaptive)
Weight generation scheme         WeightScheme... mBecke (2022)
Basis function cutoff            BFCut       ... 1.0000e-10
Integration weight cutoff        WCut        ... 1.0000e-14
Partially contracted basis set               ... off
Rotationally invariant grid construction     ... off
Angular grids for H and He will be reduced by one unit

Total number of grid points                  ...    92318
Total number of batches                      ...     1450
Average number of points per batch           ...       63
Average number of grid points per atom       ...     4616
Initializing property integral containers    ... done (  0.0 sec)

SHARK setup successfully completed in   1.1 seconds

Maximum memory used throughout the entire STARTUP-calculation: 19.8 MB


           ************************************************************
           *        Program running with 4 parallel MPI-processes     *
           *              working on a common directory               *
           ************************************************************
-------------------------------------------------------------------------------
                                 ORCA GUESS
                   Start orbitals & Density for SCF / CASSCF
-------------------------------------------------------------------------------

Producing symmetrization matrix            ... done (   0.011 sec)
------------
SCF SETTINGS
------------
Hamiltonian:
 Ab initio Hamiltonian  Method          .... Hartree-Fock(GTOs)


General Settings:
 Integral files         IntName         .... dvp_uhr_sto3g
 Hartree-Fock type      HFTyp           .... UHF
 Total Charge           Charge          ....    1
 Multiplicity           Mult            ....    2
 Number of Electrons    NEL             ....   69
 Basis Dimension        Dim             ....   60
 Nuclear Repulsion      ENuc            ....    445.9373208290 Eh

 Symmetry handling      UseSym         .... ON
 Point group                           .... C2h
 Symmetry-adapted orbitals             .... C2h
 Petite-list algorithm                 .... OFF
 Number of irreps                      .... 4
   Irrep   Ag has   25 symmetry adapted basis functions (ofs=   0)
   Irrep   Bg has    5 symmetry adapted basis functions (ofs=  25)
   Irrep   Au has    5 symmetry adapted basis functions (ofs=  30)
   Irrep   Bu has   25 symmetry adapted basis functions (ofs=  35)

Convergence Acceleration:
 AO-DIIS                CNVDIIS         .... on
   Start iteration      DIISMaxIt       ....    12
   Startup error        DIISStart       ....  0.200000
   # of expansion vecs  DIISMaxEq       ....     5
   Bias factor          DIISBfac        ....   1.050
   Max. coefficient     DIISMaxC        ....  10.000
 MO-DIIS                CNVKDIIS        .... off
 Trust-Rad. Augm. Hess. CNVTRAH         .... auto
   Auto Start mean grad. ratio tolernc. ....  1.125000
   Auto Start start iteration           ....    50
   Auto Start num. interpolation iter.  ....    10
   Max. Number of Micro iterations      ....    24
   Max. Number of Macro iterations      .... Maxiter - #DIIS iter
   Number of Davidson start vectors     ....     2
   Converg. threshold    (grad. norm)   ....   5.000e-05
   Grad. Scal. Fac. for Micro threshold ....   0.100
   Minimum threshold for Micro iter.    ....   1.000e-02
   NR start threshold (gradient norm)   ....   1.000e-04
   Initial trust radius                 ....   0.400
   Minimum AH scaling param. (alpha)    ....   1.000
   Maximum AH scaling param. (alpha)    .... 1000.000
   Quad. conv. algorithm                .... NR
   White noise on init. David. guess    .... on
   Maximum white noise                  ....   0.010
   Pseudo random numbers                .... off
   Inactive MOs                         .... canonical
   Orbital update algorithm             .... Taylor
   Preconditioner                       .... Diag
   Full preconditioner red. dimension   ....   250
 SOSCF                  CNVSOSCF        .... on
   Start iteration      SOSCFMaxIt      ....   150
   Startup grad/error   SOSCFStart      ....  0.003300
   Hessian update       SOSCFHessUp     .... L-BFGS
 Level Shifting         CNVShift        .... on
   Level shift para.    LevelShift      ....    0.2500
   Turn off err/grad.   ShiftErr        ....    0.0010
 Zerner damping         CNVZerner       .... off
 Static damping         CNVDamp         .... on
   Fraction old density DampFac         ....    0.7000
   Max. Damping (<1)    DampMax         ....    0.9800
   Min. Damping (>=0)   DampMin         ....    0.0000
   Turn off err/grad.   DampErr         ....    0.1000

SCF Procedure:
 Maximum # iterations   MaxIter         ....   125
 SCF integral mode      SCFMode         .... Direct
   Integral package                     .... SHARK and LIBINT hybrid scheme
 Reset frequency        DirectResetFreq ....    20
 Integral Threshold     Thresh          ....  1.000e-10 Eh
 Primitive CutOff       TCut            ....  1.000e-11 Eh

Convergence Tolerance:
 Convergence Check Mode ConvCheckMode   .... Total+1el-Energy
 Convergence forced     ConvForced      .... 0
 Energy Change          TolE            ....  1.000e-06 Eh
 1-El. energy change                    ....  1.000e-03 Eh
 Orbital Gradient       TolG            ....  5.000e-05
 Orbital Rotation angle TolX            ....  5.000e-05
 DIIS Error             TolErr          ....  1.000e-06

------------------------------
INITIAL GUESS: MODEL POTENTIAL
------------------------------
Loading Hartree-Fock densities                     ... done
Calculating cut-offs                               ... done
Initializing the effective Hamiltonian             ... done
Setting up the integral package (SHARK)            ... done
Starting the Coulomb interaction                   ... done (   0.1 sec)
Making the grid                                    ... done (   0.2 sec)
Mapping shells                                     ... done
Starting the XC term evaluation                    ... done (   0.0 sec)
done (   0.0 sec)
Diagonalizing the Hamiltonian                      ... done (   0.0 sec)
Back transforming the eigenvectors                 ... done (   0.0 sec)
Now organizing SCF variables                       ... done
The symmetry of the initial guess is 2-Bg
Number of occupied orbitals per irrep of operator 0:
  Ag   -   15
  Bg   -    3
  Au   -    2
  Bu   -   15
Number of occupied orbitals per irrep of operator 1:
  Ag   -   15
  Bg   -    2
  Au   -    2
  Bu   -   15
                      ------------------
                      INITIAL GUESS DONE (   0.3 sec)
                      ------------------
             **** ENERGY FILE WAS UPDATED (dvp_uhr_sto3g.en.tmp) ****
Finished Guess after   2.5 sec
Maximum memory used throughout the entire GUESS-calculation: 8.5 MB


           ************************************************************
           *        Program running with 4 parallel MPI-processes     *
           *              working on a common directory               *
           ************************************************************

-------------------------------------------------------------------------------------------
                                      ORCA LEAN-SCF
                              memory conserving SCF solver
-------------------------------------------------------------------------------------------

--------------
OVERLAP MATRIX
--------------
                  0          1          2          3          4          5    
      0       1.000000   0.248362   0.000000  -0.000000   0.000000   0.000000
      1       0.248362   1.000000   0.000000   0.000000  -0.000000   0.000303
      2       0.000000   0.000000   1.000000   0.000000   0.000000   0.000000
      3      -0.000000   0.000000   0.000000   1.000000  -0.000000   0.000815
      4       0.000000  -0.000000   0.000000  -0.000000   1.000000  -0.000133
      5       0.000000   0.000303   0.000000   0.000815  -0.000133   1.000000
      6       0.000303   0.021870   0.000000   0.035272  -0.005738   0.248362
      7       0.000000   0.000000   0.008318   0.000000   0.000000   0.000000
      8      -0.000815  -0.035272   0.000000  -0.052776   0.009938   0.000000
      9       0.000133   0.005738   0.000000   0.009938   0.006701  -0.000000
     10       0.000001   0.035571   0.000000   0.038184   0.044995   0.000000
     11       0.035571   0.353710   0.000000   0.245796   0.289638   0.001586
     12       0.000000   0.000000   0.204650   0.000000   0.000000   0.000000
     13      -0.038184  -0.245796   0.000000  -0.017878  -0.262219   0.002887
     14      -0.044995  -0.289638   0.000000  -0.262219  -0.104341  -0.002334
     15       0.000000   0.001586   0.000000   0.002887  -0.002334   0.000001
     16       0.001586   0.056189   0.000000   0.064928  -0.052499   0.035571
     17       0.000000   0.000000   0.023308   0.000000   0.000000   0.000000
     18      -0.002887  -0.064928   0.000000  -0.059283   0.066781   0.038184
     19       0.002334   0.052499   0.000000   0.066781  -0.030689   0.044995
     20       0.000000   0.001566   0.000000   0.003439   0.001284   0.000001
     21       0.001566   0.055779   0.000000   0.077714   0.029024   0.035577
     22       0.000000   0.000000   0.023119   0.000000   0.000000   0.000000
     23      -0.003439  -0.077714   0.000000  -0.096044  -0.044505   0.021827
     24      -0.001284  -0.029024   0.000000  -0.044505   0.006498  -0.054839
     25       0.000001   0.035577   0.000000   0.021827  -0.054839   0.000000
     26       0.035577   0.353745   0.000000   0.140486  -0.352971   0.001566
     27       0.000000   0.000000   0.204676   0.000000   0.000000   0.000000
     28      -0.021827  -0.140486   0.000000   0.131987   0.182631   0.003439
     29       0.054839   0.352971   0.000000   0.182631  -0.254183   0.001284
     30       0.005093   0.093008   0.000000   0.029652   0.116986   0.000080
     31       0.000080   0.005902   0.000000   0.006551  -0.007348   0.005093
     32       0.000079   0.005884   0.000000   0.008518   0.004880   0.005080
     33       0.005080   0.092844   0.000000  -0.008985  -0.120165   0.000079
     34       0.000000   0.000000   0.000000   0.000000  -0.000000   0.000000
     35       0.000000   0.000260   0.000000   0.000567  -0.000099   0.029550
     36       0.000000   0.000000   0.000083   0.000000   0.000000   0.000000
     37      -0.000000  -0.000567   0.000000  -0.001169   0.000219  -0.048351
     38       0.000000   0.000099   0.000000   0.000219   0.000045   0.009572
     39       0.000000   0.029550   0.000000  -0.048351   0.009572   0.000000
     40       0.029550   0.317607   0.000000  -0.345288   0.068354   0.000000
     41       0.000000   0.000000   0.177906   0.000000   0.000000   0.000000
     42       0.048351   0.345288   0.000000  -0.301124   0.094829   0.000000
     43      -0.009572  -0.068354   0.000000   0.094829   0.159134  -0.000000
     44       0.000000   0.000082   0.000000   0.000163  -0.000065   0.004869
     45       0.004869   0.090066   0.000000  -0.092108   0.072707   0.000000
     46       0.000000   0.000000   0.000000   0.000000   0.000000   0.000000
     47       0.000000   0.000007   0.000000   0.000019   0.000001   0.001159
     48       0.000000   0.000000   0.000002   0.000000   0.000000   0.000000
     49      -0.000000  -0.000019   0.000000  -0.000048  -0.000001  -0.002719
     50      -0.000000  -0.000001   0.000000  -0.000001   0.000002  -0.000676
     51       0.000000   0.001159   0.000000  -0.002719  -0.000676   0.000000
     52       0.001159   0.046884   0.000000  -0.068991  -0.017143   0.000000
     53       0.000000   0.000000   0.019082   0.000000   0.000000   0.000000
     54       0.002719   0.068991   0.000000  -0.092040  -0.027613   0.000000
     55       0.000676   0.017143   0.000000  -0.027613   0.012221   0.000000
     56       0.000000   0.000024   0.000000   0.000053   0.000013   0.000741
     57       0.000741   0.024679   0.000000  -0.029617  -0.021993   0.000000
     58       0.000000   0.000000   0.000000   0.000001  -0.000000   0.000058
     59       0.000058   0.004808   0.000000  -0.008103  -0.000694   0.000000
                  6          7          8          9         10         11    
      0       0.000303   0.000000  -0.000815   0.000133   0.000001   0.035571
      1       0.021870   0.000000  -0.035272   0.005738   0.035571   0.353710
      2       0.000000   0.008318   0.000000   0.000000   0.000000   0.000000
      3       0.035272   0.000000  -0.052776   0.009938   0.038184   0.245796
      4      -0.005738   0.000000   0.009938   0.006701   0.044995   0.289638
      5       0.248362   0.000000   0.000000  -0.000000   0.000000   0.001586
      6       1.000000   0.000000  -0.000000   0.000000   0.001586   0.056189
      7       0.000000   1.000000   0.000000   0.000000   0.000000   0.000000
      8      -0.000000   0.000000   1.000000  -0.000000  -0.002887  -0.064928
      9       0.000000   0.000000  -0.000000   1.000000   0.002334   0.052499
     10       0.001586   0.000000  -0.002887   0.002334   1.000000   0.248362
     11       0.056189   0.000000  -0.064928   0.052499   0.248362   1.000000
     12       0.000000   0.023308   0.000000   0.000000   0.000000   0.000000
     13       0.064928   0.000000  -0.059283   0.066781   0.000000   0.000000
     14      -0.052499   0.000000   0.066781  -0.030689   0.000000  -0.000000
     15       0.035571   0.000000  -0.038184  -0.044995   0.000000   0.000389
     16       0.353710   0.000000  -0.245796  -0.289638   0.000389   0.025192
     17       0.000000   0.204650   0.000000   0.000000   0.000000   0.000000
     18       0.245796   0.000000  -0.017878  -0.262219  -0.000366  -0.014325
     19       0.289638   0.000000  -0.262219  -0.104341   0.000973   0.038030
     20       0.035577   0.000000  -0.021827   0.054839   0.000001   0.037289
     21       0.353745   0.000000  -0.140486   0.352971   0.037289   0.363412
     22       0.000000   0.204676   0.000000   0.000000   0.000000   0.000000
     23       0.140486   0.000000   0.131987   0.182631  -0.061039  -0.382052
     24      -0.352971   0.000000   0.182631  -0.254183   0.009854   0.061676
     25       0.001566   0.000000  -0.003439  -0.001284   0.000000   0.001704
     26       0.055779   0.000000  -0.077714  -0.029024   0.001704   0.058556
     27       0.000000   0.023119   0.000000   0.000000   0.000000   0.000000
     28       0.077714   0.000000  -0.096044  -0.044505   0.000640   0.014008
     29       0.029024   0.000000  -0.044505   0.006498   0.003904   0.085461
     30       0.005902   0.000000  -0.006551   0.007348   0.061021   0.485751
     31       0.093008   0.000000  -0.029652  -0.116986   0.000011   0.001755
     32       0.092844   0.000000   0.008985   0.120165   0.005272   0.095347
     33       0.005884   0.000000  -0.008518  -0.004880   0.000084   0.006109
     34       0.029550   0.000000   0.048351  -0.009572   0.000000   0.000002
     35       0.317607   0.000000   0.345288  -0.068354   0.000002   0.001445
     36       0.000000   0.177906   0.000000   0.000000   0.000000   0.000000
     37      -0.345288   0.000000  -0.301124   0.094829  -0.000007  -0.002536
     38       0.068354   0.000000   0.094829   0.159134   0.000004   0.001377
     39       0.000000   0.000000  -0.000000   0.000000   0.000000   0.001261
     40       0.000260   0.000000  -0.000567   0.000099   0.001261   0.049215
     41       0.000000   0.000083   0.000000   0.000000   0.000000   0.000000
     42       0.000567   0.000000  -0.001169   0.000219   0.002868   0.070448
     43      -0.000099   0.000000   0.000219   0.000045   0.000952   0.023391
     44       0.090066   0.000000   0.092108  -0.072707   0.000000   0.000188
     45       0.000082   0.000000  -0.000163   0.000065   0.001315   0.036237
     46       0.001159   0.000000   0.002719   0.000676   0.000000   0.000000
     47       0.046884   0.000000   0.068991   0.017143   0.000000   0.000177
     48       0.000000   0.019082   0.000000   0.000000   0.000000   0.000000
     49      -0.068991   0.000000  -0.092040  -0.027613  -0.000000  -0.000392
     50      -0.017143   0.000000  -0.027613   0.012221   0.000000   0.000083
     51       0.000000   0.000000  -0.000000  -0.000000   0.000000   0.000003
     52       0.000007   0.000000  -0.000019  -0.000001   0.000003   0.001738
     53       0.000000   0.000002   0.000000   0.000000   0.000000   0.000000
     54       0.000019   0.000000  -0.000048  -0.000001   0.000010   0.003066
     55       0.000001   0.000000  -0.000001   0.000002   0.000005   0.001537
     56       0.024679   0.000000   0.029617   0.021993   0.000003   0.000779
     57       0.000024   0.000000  -0.000053  -0.000013   0.000002   0.000684
     58       0.004808   0.000000   0.008103   0.000694   0.000000   0.000008
     59       0.000000   0.000000  -0.000001   0.000000   0.000000   0.000192
                 12         13         14         15         16         17    
      0       0.000000  -0.038184  -0.044995   0.000000   0.001586   0.000000
      1       0.000000  -0.245796  -0.289638   0.001586   0.056189   0.000000
      2       0.204650   0.000000   0.000000   0.000000   0.000000   0.023308
      3       0.000000  -0.017878  -0.262219   0.002887   0.064928   0.000000
      4       0.000000  -0.262219  -0.104341  -0.002334  -0.052499   0.000000
      5       0.000000   0.002887  -0.002334   0.000001   0.035571   0.000000
      6       0.000000   0.064928  -0.052499   0.035571   0.353710   0.000000
      7       0.023308   0.000000   0.000000   0.000000   0.000000   0.204650
      8       0.000000  -0.059283   0.066781  -0.038184  -0.245796   0.000000
      9       0.000000   0.066781  -0.030689  -0.044995  -0.289638   0.000000
     10       0.000000   0.000000   0.000000   0.000000   0.000389   0.000000
     11       0.000000   0.000000  -0.000000   0.000389   0.025192   0.000000
     12       1.000000   0.000000   0.000000   0.000000   0.000000   0.009690
     13       0.000000   1.000000  -0.000000   0.000366   0.014325   0.000000
     14       0.000000  -0.000000   1.000000  -0.000973  -0.038030   0.000000
     15       0.000000   0.000366  -0.000973   1.000000   0.248362   0.000000
     16       0.000000   0.014325  -0.038030   0.248362   1.000000   0.000000
     17       0.009690   0.000000   0.000000   0.000000   0.000000   1.000000
     18       0.000000   0.000914   0.023298  -0.000000  -0.000000   0.000000
     19       0.000000   0.023298  -0.052161  -0.000000   0.000000   0.000000
     20       0.000000   0.061039  -0.009854   0.000000   0.001704   0.000000
     21       0.000000   0.382052  -0.061676   0.001704   0.058556   0.000000
     22       0.212076   0.000000   0.000000   0.000000   0.000000   0.024399
     23       0.000000  -0.314118   0.084945  -0.000640  -0.014008   0.000000
     24       0.000000   0.084945   0.198363  -0.003904  -0.085461   0.000000
     25       0.000000  -0.000640  -0.003904   0.000001   0.037289   0.000000
     26       0.000000  -0.014008  -0.085461   0.037289   0.363412   0.000000
     27       0.024399   0.000000   0.000000   0.000000   0.000000   0.212076
     28       0.000000   0.020705  -0.022538   0.061039   0.382052   0.000000
     29       0.000000  -0.022538  -0.113097  -0.009854  -0.061676   0.000000
     30       0.000000  -0.162438   0.434922   0.000011   0.001755   0.000000
     31       0.000000   0.001114  -0.002965   0.061021   0.485751   0.000000
     32       0.000000   0.117989   0.035889   0.000084   0.006109   0.000000
     33       0.000000  -0.003205  -0.009648   0.005272   0.095347   0.000000
     34       0.000000   0.000007  -0.000004   0.000000   0.001261   0.000000
     35       0.000000   0.002536  -0.001377   0.001261   0.049215   0.000000
     36       0.000480   0.000000   0.000000   0.000000   0.000000   0.020131
     37       0.000000  -0.004091   0.002483  -0.002868  -0.070448   0.000000
     38       0.000000   0.002483  -0.000868  -0.000952  -0.023391   0.000000
     39       0.000000  -0.002868  -0.000952   0.000000   0.000002   0.000000
     40       0.000000  -0.070448  -0.023391   0.000002   0.001445   0.000000
     41       0.020131   0.000000   0.000000   0.000000   0.000000   0.000480
     42       0.000000  -0.090407  -0.036702   0.000007   0.002536   0.000000
     43       0.000000  -0.036702   0.007944  -0.000004  -0.001377   0.000000
     44       0.000000   0.000302  -0.000241   0.001315   0.036237   0.000000
     45       0.000000  -0.051982   0.005453   0.000000   0.000188   0.000000
     46       0.000000   0.000000  -0.000000   0.000000   0.000003   0.000000
     47       0.000000   0.000392  -0.000083   0.000003   0.001738   0.000000
     48       0.000057   0.000000   0.000000   0.000000   0.000000   0.000581
     49       0.000000  -0.000820   0.000187  -0.000010  -0.003066   0.000000
     50       0.000000   0.000187   0.000017  -0.000005  -0.001537   0.000000
     51       0.000000  -0.000010  -0.000005   0.000000   0.000000   0.000000
     52       0.000000  -0.003066  -0.001537   0.000000   0.000177   0.000000
     53       0.000581   0.000000   0.000000   0.000000   0.000000   0.000057
     54       0.000000  -0.004988  -0.002792   0.000000   0.000392   0.000000
     55       0.000000  -0.002792  -0.000819  -0.000000  -0.000083   0.000000
     56       0.000000   0.001477   0.000052   0.000002   0.000684   0.000000
     57       0.000000  -0.000988  -0.000857   0.000003   0.000779   0.000000
     58       0.000000   0.000018  -0.000004   0.000000   0.000192   0.000000
     59       0.000000  -0.000376  -0.000117   0.000000   0.000008   0.000000
                 18         19         20         21         22         23    
      0      -0.002887   0.002334   0.000000   0.001566   0.000000  -0.003439
      1      -0.064928   0.052499   0.001566   0.055779   0.000000  -0.077714
      2       0.000000   0.000000   0.000000   0.000000   0.023119   0.000000
      3      -0.059283   0.066781   0.003439   0.077714   0.000000  -0.096044
      4       0.066781  -0.030689   0.001284   0.029024   0.000000  -0.044505
      5       0.038184   0.044995   0.000001   0.035577   0.000000   0.021827
      6       0.245796   0.289638   0.035577   0.353745   0.000000   0.140486
      7       0.000000   0.000000   0.000000   0.000000   0.204676   0.000000
      8      -0.017878  -0.262219  -0.021827  -0.140486   0.000000   0.131987
      9      -0.262219  -0.104341   0.054839   0.352971   0.000000   0.182631
     10      -0.000366   0.000973   0.000001   0.037289   0.000000  -0.061039
     11      -0.014325   0.038030   0.037289   0.363412   0.000000  -0.382052
     12       0.000000   0.000000   0.000000   0.000000   0.212076   0.000000
     13       0.000914   0.023298   0.061039   0.382052   0.000000  -0.314118
     14       0.023298  -0.052161  -0.009854  -0.061676   0.000000   0.084945
     15      -0.000000  -0.000000   0.000000   0.001704   0.000000  -0.000640
     16      -0.000000   0.000000   0.001704   0.058556   0.000000  -0.014008
     17       0.000000   0.000000   0.000000   0.000000   0.024399   0.000000
     18       1.000000  -0.000000   0.000640   0.014008   0.000000   0.020705
     19      -0.000000   1.000000   0.003904   0.085461   0.000000  -0.022538
     20       0.000640   0.003904   1.000000   0.248362   0.000000   0.000000
     21       0.014008   0.085461   0.248362   1.000000   0.000000  -0.000000
     22       0.000000   0.000000   0.000000   0.000000   1.000000   0.000000
     23       0.020705  -0.022538   0.000000  -0.000000   0.000000   1.000000
     24      -0.022538  -0.113097   0.000000   0.000000   0.000000   0.000000
     25      -0.061039   0.009854   0.000000   0.000380   0.000000  -0.000642
     26      -0.382052   0.061676   0.000380   0.024839   0.000000  -0.025352
     27       0.000000   0.000000   0.000000   0.000000   0.009543   0.000000
     28      -0.314118   0.084945   0.000642   0.025352   0.000000  -0.018324
     29       0.084945   0.198363   0.000788   0.031097   0.000000  -0.034183
     30      -0.001114   0.002965   0.005261   0.095201   0.000000  -0.100510
     31       0.162438  -0.434922   0.000084   0.006108   0.000000  -0.000029
     32       0.003205   0.009648   0.061264   0.486727   0.000000   0.291746
     33      -0.117989  -0.035889   0.000011   0.001735   0.000000  -0.001976
     34       0.002868   0.000952   0.000000   0.001051   0.000000   0.001996
     35       0.070448   0.023391   0.001051   0.044325   0.000000   0.052595
     36       0.000000   0.000000   0.000000   0.000000   0.017940   0.000000
     37      -0.090407  -0.036702  -0.001996  -0.052595   0.000000  -0.050256
     38      -0.036702   0.007944   0.001612   0.042495   0.000000   0.055100
     39      -0.000007   0.000004   0.000000   0.000003   0.000000  -0.000009
     40      -0.002536   0.001377   0.000003   0.001582   0.000000  -0.003106
     41       0.000000   0.000000   0.000000   0.000000   0.000527   0.000000
     42      -0.004091   0.002483   0.000009   0.003106   0.000000  -0.005744
     43       0.002483  -0.000868   0.000001   0.000469   0.000000  -0.000947
     44       0.051982  -0.005453   0.000064   0.005153   0.000000   0.005576
     45      -0.000302   0.000241   0.000006   0.001141   0.000000  -0.002099
     46       0.000010   0.000005   0.000000   0.000120   0.000000   0.000341
     47       0.003066   0.001537   0.000120   0.013048   0.000000   0.021677
     48       0.000000   0.000000   0.000000   0.000000   0.004783   0.000000
     49      -0.004988  -0.002792  -0.000341  -0.021677   0.000000  -0.033488
     50      -0.002792  -0.000819   0.000081   0.005137   0.000000   0.009069
     51      -0.000000   0.000000   0.000000   0.000000   0.000000  -0.000000
     52      -0.000392   0.000083   0.000000   0.000025   0.000000  -0.000060
     53       0.000000   0.000000   0.000000   0.000000   0.000008   0.000000
     54      -0.000820   0.000187   0.000000   0.000060   0.000000  -0.000136
     55       0.000187   0.000017   0.000000   0.000018   0.000000  -0.000044
     56       0.000988   0.000857   0.000764   0.025192   0.000000   0.037262
     57      -0.001477  -0.000052   0.000000   0.000025   0.000000  -0.000049
     58       0.000376   0.000117   0.000003   0.000835   0.000000   0.001529
     59      -0.000018   0.000004   0.000000   0.000002   0.000000  -0.000004
                 24         25         26         27         28         29    
      0      -0.001284   0.000001   0.035577   0.000000  -0.021827   0.054839
      1      -0.029024   0.035577   0.353745   0.000000  -0.140486   0.352971
      2       0.000000   0.000000   0.000000   0.204676   0.000000   0.000000
      3      -0.044505   0.021827   0.140486   0.000000   0.131987   0.182631
      4       0.006498  -0.054839  -0.352971   0.000000   0.182631  -0.254183
      5      -0.054839   0.000000   0.001566   0.000000   0.003439   0.001284
      6      -0.352971   0.001566   0.055779   0.000000   0.077714   0.029024
      7       0.000000   0.000000   0.000000   0.023119   0.000000   0.000000
      8       0.182631  -0.003439  -0.077714   0.000000  -0.096044  -0.044505
      9      -0.254183  -0.001284  -0.029024   0.000000  -0.044505   0.006498
     10       0.009854   0.000000   0.001704   0.000000   0.000640   0.003904
     11       0.061676   0.001704   0.058556   0.000000   0.014008   0.085461
     12       0.000000   0.000000   0.000000   0.024399   0.000000   0.000000
     13       0.084945  -0.000640  -0.014008   0.000000   0.020705  -0.022538
     14       0.198363  -0.003904  -0.085461   0.000000  -0.022538  -0.113097
     15      -0.003904   0.000001   0.037289   0.000000   0.061039  -0.009854
     16      -0.085461   0.037289   0.363412   0.000000   0.382052  -0.061676
     17       0.000000   0.000000   0.000000   0.212076   0.000000   0.000000
     18      -0.022538  -0.061039  -0.382052   0.000000  -0.314118   0.084945
     19      -0.113097   0.009854   0.061676   0.000000   0.084945   0.198363
     20       0.000000   0.000000   0.000380   0.000000   0.000642   0.000788
     21       0.000000   0.000380   0.024839   0.000000   0.025352   0.031097
     22       0.000000   0.000000   0.000000   0.009543   0.000000   0.000000
     23       0.000000  -0.000642  -0.025352   0.000000  -0.018324  -0.034183
     24       1.000000  -0.000788  -0.031097   0.000000  -0.034183  -0.032385
     25      -0.000788   1.000000   0.248362   0.000000  -0.000000  -0.000000
     26      -0.031097   0.248362   1.000000   0.000000   0.000000   0.000000
     27       0.000000   0.000000   0.000000   1.000000   0.000000   0.000000
     28      -0.034183  -0.000000   0.000000   0.000000   1.000000   0.000000
     29      -0.032385  -0.000000   0.000000   0.000000   0.000000   1.000000
     30       0.071181   0.000084   0.006108   0.000000   0.000029   0.010164
     31      -0.010164   0.005261   0.095201   0.000000   0.100510  -0.071181
     32       0.361906   0.000011   0.001735   0.000000   0.001976   0.002432
     33      -0.002432   0.061264   0.486727   0.000000  -0.291746  -0.361906
     34      -0.001612   0.000000   0.000003   0.000000   0.000009   0.000001
     35      -0.042495   0.000003   0.001582   0.000000   0.003106   0.000469
     36       0.000000   0.000000   0.000000   0.000527   0.000000   0.000000
     37       0.055100  -0.000009  -0.003106   0.000000  -0.005744  -0.000947
     38      -0.026579  -0.000001  -0.000469   0.000000  -0.000947   0.000384
     39      -0.000001   0.000000   0.001051   0.000000  -0.001996   0.001612
     40      -0.000469   0.001051   0.044325   0.000000  -0.052595   0.042495
     41       0.000000   0.000000   0.000000   0.017940   0.000000   0.000000
     42      -0.000947   0.001996   0.052595   0.000000  -0.050256   0.055100
     43       0.000384  -0.001612  -0.042495   0.000000   0.055100  -0.026579
     44      -0.006646   0.000006   0.001141   0.000000   0.002099  -0.000261
     45       0.000261   0.000064   0.005153   0.000000  -0.005576   0.006646
     46      -0.000081   0.000000   0.000000   0.000000   0.000000   0.000000
     47      -0.005137   0.000000   0.000025   0.000000   0.000060   0.000018
     48       0.000000   0.000000   0.000000   0.000008   0.000000   0.000000
     49       0.009069  -0.000000  -0.000060   0.000000  -0.000136  -0.000044
     50       0.002634  -0.000000  -0.000018   0.000000  -0.000044  -0.000006
     51      -0.000000   0.000000   0.000120   0.000000  -0.000341   0.000081
     52      -0.000018   0.000120   0.013048   0.000000  -0.021677   0.005137
     53       0.000000   0.000000   0.000000   0.004783   0.000000   0.000000
     54      -0.000044   0.000341   0.021677   0.000000  -0.033488   0.009069
     55      -0.000006  -0.000081  -0.005137   0.000000   0.009069   0.002634
     56       0.004934   0.000000   0.000025   0.000000   0.000049   0.000028
     57      -0.000028   0.000764   0.025192   0.000000  -0.037262  -0.004934
     58      -0.000386   0.000000   0.000002   0.000000   0.000004   0.000001
     59      -0.000001   0.000003   0.000835   0.000000  -0.001529   0.000386
                 30         31         32         33         34         35    
      0       0.005093   0.000080   0.000079   0.005080   0.000000   0.000000
      1       0.093008   0.005902   0.005884   0.092844   0.000000   0.000260
      2       0.000000   0.000000   0.000000   0.000000   0.000000   0.000000
      3       0.029652   0.006551   0.008518  -0.008985   0.000000   0.000567
      4       0.116986  -0.007348   0.004880  -0.120165  -0.000000  -0.000099
      5       0.000080   0.005093   0.005080   0.000079   0.000000   0.029550
      6       0.005902   0.093008   0.092844   0.005884   0.029550   0.317607
      7       0.000000   0.000000   0.000000   0.000000   0.000000   0.000000
      8      -0.006551  -0.029652   0.008985  -0.008518   0.048351   0.345288
      9       0.007348  -0.116986   0.120165  -0.004880  -0.009572  -0.068354
     10       0.061021   0.000011   0.005272   0.000084   0.000000   0.000002
     11       0.485751   0.001755   0.095347   0.006109   0.000002   0.001445
     12       0.000000   0.000000   0.000000   0.000000   0.000000   0.000000
     13      -0.162438   0.001114   0.117989  -0.003205   0.000007   0.002536
     14       0.434922  -0.002965   0.035889  -0.009648  -0.000004  -0.001377
     15       0.000011   0.061021   0.000084   0.005272   0.000000   0.001261
     16       0.001755   0.485751   0.006109   0.095347   0.001261   0.049215
     17       0.000000   0.000000   0.000000   0.000000   0.000000   0.000000
     18      -0.001114   0.162438   0.003205  -0.117989   0.002868   0.070448
     19       0.002965  -0.434922   0.009648  -0.035889   0.000952   0.023391
     20       0.005261   0.000084   0.061264   0.000011   0.000000   0.001051
     21       0.095201   0.006108   0.486727   0.001735   0.001051   0.044325
     22       0.000000   0.000000   0.000000   0.000000   0.000000   0.000000
     23      -0.100510  -0.000029   0.291746  -0.001976   0.001996   0.052595
     24       0.071181  -0.010164   0.361906  -0.002432  -0.001612  -0.042495
     25       0.000084   0.005261   0.000011   0.061264   0.000000   0.000003
     26       0.006108   0.095201   0.001735   0.486727   0.000003   0.001582
     27       0.000000   0.000000   0.000000   0.000000   0.000000   0.000000
     28       0.000029   0.100510   0.001976  -0.291746   0.000009   0.003106
     29       0.010164  -0.071181   0.002432  -0.361906   0.000001   0.000469
     30       1.000000   0.000106   0.050494   0.000712   0.000000   0.000147
     31       0.000106   1.000000   0.000712   0.050494   0.001125   0.032620
     32       0.050494   0.000712   1.000000   0.000105   0.000868   0.027412
     33       0.000712   0.050494   0.000105   1.000000   0.000000   0.000170
     34       0.000000   0.001125   0.000868   0.000000   1.000000   0.248362
     35       0.000147   0.032620   0.027412   0.000170   0.248362   1.000000
     36       0.000000   0.000000   0.000000   0.000000   0.000000   0.000000
     37      -0.000243  -0.035170  -0.019005  -0.000336  -0.000000   0.000000
     38       0.000185  -0.031971   0.035867  -0.000107   0.000000   0.000000
     39       0.001125   0.000000   0.000000   0.000868   0.000000   0.000000
     40       0.032620   0.000147   0.000170   0.027412   0.000000   0.000001
     41       0.000000   0.000000   0.000000   0.000000   0.000000   0.000000
     42       0.035170   0.000243   0.000336   0.019005   0.000000   0.000002
     43       0.031971  -0.000185   0.000107  -0.035867   0.000000  -0.000000
     44       0.000014   0.061526   0.002479   0.000240   0.060698   0.484450
     45       0.061526   0.000014   0.000240   0.002479   0.000000   0.000000
     46       0.000000   0.000006   0.000892   0.000000   0.000002   0.042836
     47       0.000035   0.001164   0.027916   0.000002   0.042836   0.393154
     48       0.000000   0.000000   0.000000   0.000000   0.000000   0.000000
     49      -0.000073  -0.001595  -0.034145  -0.000004  -0.052605  -0.302012
     50       0.000030  -0.001449   0.023178  -0.000002  -0.047737  -0.274063
     51       0.000006   0.000000   0.000000   0.000892   0.000000   0.000000
     52       0.001164   0.000035   0.000002   0.027916   0.000000   0.000000
     53       0.000000   0.000000   0.000000   0.000000   0.000000   0.000000
     54       0.001595   0.000073   0.000004   0.034145   0.000000   0.000000
     55       0.001449  -0.000030   0.000002  -0.023178   0.000000  -0.000000
     56       0.000297   0.000238   0.089435   0.000001   0.005606   0.099655
     57       0.000238   0.000297   0.000001   0.089435   0.000000   0.000000
     58       0.000002   0.000251   0.002637   0.000000   0.005772   0.101772
     59       0.000251   0.000002   0.000000   0.002637   0.000000   0.000000
                 36         37         38         39         40         41    
      0       0.000000  -0.000000   0.000000   0.000000   0.029550   0.000000
      1       0.000000  -0.000567   0.000099   0.029550   0.317607   0.000000
      2       0.000083   0.000000   0.000000   0.000000   0.000000   0.177906
      3       0.000000  -0.001169   0.000219  -0.048351  -0.345288   0.000000
      4       0.000000   0.000219   0.000045   0.009572   0.068354   0.000000
      5       0.000000  -0.048351   0.009572   0.000000   0.000000   0.000000
      6       0.000000  -0.345288   0.068354   0.000000   0.000260   0.000000
      7       0.177906   0.000000   0.000000   0.000000   0.000000   0.000083
      8       0.000000  -0.301124   0.094829  -0.000000  -0.000567   0.000000
      9       0.000000   0.094829   0.159134   0.000000   0.000099   0.000000
     10       0.000000  -0.000007   0.000004   0.000000   0.001261   0.000000
     11       0.000000  -0.002536   0.001377   0.001261   0.049215   0.000000
     12       0.000480   0.000000   0.000000   0.000000   0.000000   0.020131
     13       0.000000  -0.004091   0.002483  -0.002868  -0.070448   0.000000
     14       0.000000   0.002483  -0.000868  -0.000952  -0.023391   0.000000
     15       0.000000  -0.002868  -0.000952   0.000000   0.000002   0.000000
     16       0.000000  -0.070448  -0.023391   0.000002   0.001445   0.000000
     17       0.020131   0.000000   0.000000   0.000000   0.000000   0.000480
     18       0.000000  -0.090407  -0.036702  -0.000007  -0.002536   0.000000
     19       0.000000  -0.036702   0.007944   0.000004   0.001377   0.000000
     20       0.000000  -0.001996   0.001612   0.000000   0.000003   0.000000
     21       0.000000  -0.052595   0.042495   0.000003   0.001582   0.000000
     22       0.017940   0.000000   0.000000   0.000000   0.000000   0.000527
     23       0.000000  -0.050256   0.055100  -0.000009  -0.003106   0.000000
     24       0.000000   0.055100  -0.026579  -0.000001  -0.000469   0.000000
     25       0.000000  -0.000009  -0.000001   0.000000   0.001051   0.000000
     26       0.000000  -0.003106  -0.000469   0.001051   0.044325   0.000000
     27       0.000527   0.000000   0.000000   0.000000   0.000000   0.017940
     28       0.000000  -0.005744  -0.000947  -0.001996  -0.052595   0.000000
     29       0.000000  -0.000947   0.000384   0.001612   0.042495   0.000000
     30       0.000000  -0.000243   0.000185   0.001125   0.032620   0.000000
     31       0.000000  -0.035170  -0.031971   0.000000   0.000147   0.000000
     32       0.000000  -0.019005   0.035867   0.000000   0.000170   0.000000
     33       0.000000  -0.000336  -0.000107   0.000868   0.027412   0.000000
     34       0.000000  -0.000000   0.000000   0.000000   0.000000   0.000000
     35       0.000000   0.000000   0.000000   0.000000   0.000001   0.000000
     36       1.000000   0.000000   0.000000   0.000000   0.000000   0.000000
     37       0.000000   1.000000  -0.000000   0.000000  -0.000002   0.000000
     38       0.000000  -0.000000   1.000000   0.000000   0.000000   0.000000
     39       0.000000   0.000000   0.000000   1.000000   0.248362   0.000000
     40       0.000000  -0.000002   0.000000   0.248362   1.000000   0.000000
     41       0.000000   0.000000   0.000000   0.000000   0.000000   1.000000
     42       0.000000  -0.000005   0.000001   0.000000  -0.000000   0.000000
     43       0.000000   0.000001   0.000000  -0.000000  -0.000000   0.000000
     44       0.000000   0.107666  -0.450797   0.000000   0.000000   0.000000
     45       0.000000  -0.000001   0.000000   0.060698   0.484450   0.000000
     46       0.000000   0.052605   0.047737   0.000000   0.000000   0.000000
     47       0.000000   0.302012   0.274063   0.000000   0.000000   0.000000
     48       0.235487   0.000000   0.000000   0.000000   0.000000   0.000000
     49       0.000000  -0.073678  -0.280555   0.000000  -0.000000   0.000000
     50       0.000000  -0.280555  -0.019106   0.000000   0.000000   0.000000
     51       0.000000   0.000000   0.000000   0.000002   0.042836   0.000000
     52       0.000000  -0.000000   0.000000   0.042836   0.393154   0.000000
     53       0.000000   0.000000   0.000000   0.000000   0.000000   0.235487
     54       0.000000  -0.000000   0.000000   0.052605   0.302012   0.000000
     55       0.000000   0.000000   0.000000   0.047737   0.274063   0.000000
     56       0.000000   0.048458   0.118650   0.000000   0.000000   0.000000
     57       0.000000  -0.000000  -0.000000   0.005606   0.099655   0.000000
     58       0.000000   0.125386   0.036273   0.000000   0.000000   0.000000
     59       0.000000  -0.000000   0.000000   0.005772   0.101772   0.000000
                 42         43         44         45         46         47    
      0       0.048351  -0.009572   0.000000   0.004869   0.000000   0.000000
      1       0.345288  -0.068354   0.000082   0.090066   0.000000   0.000007
      2       0.000000   0.000000   0.000000   0.000000   0.000000   0.000000
      3      -0.301124   0.094829   0.000163  -0.092108   0.000000   0.000019
      4       0.094829   0.159134  -0.000065   0.072707   0.000000   0.000001
      5       0.000000  -0.000000   0.004869   0.000000   0.000000   0.001159
      6       0.000567  -0.000099   0.090066   0.000082   0.001159   0.046884
      7       0.000000   0.000000   0.000000   0.000000   0.000000   0.000000
      8      -0.001169   0.000219   0.092108  -0.000163   0.002719   0.068991
      9       0.000219   0.000045  -0.072707   0.000065   0.000676   0.017143
     10       0.002868   0.000952   0.000000   0.001315   0.000000   0.000000
     11       0.070448   0.023391   0.000188   0.036237   0.000000   0.000177
     12       0.000000   0.000000   0.000000   0.000000   0.000000   0.000000
     13      -0.090407  -0.036702   0.000302  -0.051982   0.000000   0.000392
     14      -0.036702   0.007944  -0.000241   0.005453  -0.000000  -0.000083
     15       0.000007  -0.000004   0.001315   0.000000   0.000000   0.000003
     16       0.002536  -0.001377   0.036237   0.000188   0.000003   0.001738
     17       0.000000   0.000000   0.000000   0.000000   0.000000   0.000000
     18      -0.004091   0.002483   0.051982  -0.000302   0.000010   0.003066
     19       0.002483  -0.000868  -0.005453   0.000241   0.000005   0.001537
     20       0.000009   0.000001   0.000064   0.000006   0.000000   0.000120
     21       0.003106   0.000469   0.005153   0.001141   0.000120   0.013048
     22       0.000000   0.000000   0.000000   0.000000   0.000000   0.000000
     23      -0.005744  -0.000947   0.005576  -0.002099   0.000341   0.021677
     24      -0.000947   0.000384  -0.006646   0.000261  -0.000081  -0.005137
     25       0.001996  -0.001612   0.000006   0.000064   0.000000   0.000000
     26       0.052595  -0.042495   0.001141   0.005153   0.000000   0.000025
     27       0.000000   0.000000   0.000000   0.000000   0.000000   0.000000
     28      -0.050256   0.055100   0.002099  -0.005576   0.000000   0.000060
     29       0.055100  -0.026579  -0.000261   0.006646   0.000000   0.000018
     30       0.035170   0.031971   0.000014   0.061526   0.000000   0.000035
     31       0.000243  -0.000185   0.061526   0.000014   0.000006   0.001164
     32       0.000336   0.000107   0.002479   0.000240   0.000892   0.027916
     33       0.019005  -0.035867   0.000240   0.002479   0.000000   0.000002
     34       0.000000   0.000000   0.060698   0.000000   0.000002   0.042836
     35       0.000002  -0.000000   0.484450   0.000000   0.042836   0.393154
     36       0.000000   0.000000   0.000000   0.000000   0.000000   0.000000
     37      -0.000005   0.000001   0.107666  -0.000001   0.052605   0.302012
     38       0.000001   0.000000  -0.450797   0.000000   0.047737   0.274063
     39       0.000000  -0.000000   0.000000   0.060698   0.000000   0.000000
     40      -0.000000  -0.000000   0.000000   0.484450   0.000000   0.000000
     41       0.000000   0.000000   0.000000   0.000000   0.000000   0.000000
     42       1.000000  -0.000000   0.000001  -0.107666   0.000000   0.000000
     43      -0.000000   1.000000  -0.000000   0.450797   0.000000  -0.000000
     44       0.000001  -0.000000   1.000000   0.000000   0.006110   0.106041
     45      -0.107666   0.450797   0.000000   1.000000   0.000000   0.000000
     46       0.000000   0.000000   0.006110   0.000000   1.000000   0.248362
     47       0.000000  -0.000000   0.106041   0.000000   0.248362   1.000000
     48       0.000000   0.000000   0.000000   0.000000   0.000000   0.000000
     49      -0.000000   0.000000  -0.047461  -0.000000  -0.000000  -0.000000
     50       0.000000   0.000000  -0.126669   0.000000   0.000000   0.000000
     51      -0.052605  -0.047737   0.000000   0.006110   0.000000   0.000000
     52      -0.302012  -0.274063   0.000000   0.106041   0.000000   0.000000
     53       0.000000   0.000000   0.000000   0.000000   0.000000   0.000000
     54      -0.073678  -0.280555   0.000000   0.047461   0.000000   0.000000
     55      -0.280555  -0.019106  -0.000000   0.126669   0.000000   0.000000
     56       0.000000   0.000000   0.014616   0.000000   0.061412   0.487320
     57      -0.048458  -0.118650   0.000000   0.014616   0.000000   0.000000
     58       0.000000  -0.000000   0.054933   0.000000   0.061314   0.486927
     59      -0.125386  -0.036273   0.000000   0.054933   0.000000   0.000000
                 48         49         50         51         52         53    
      0       0.000000  -0.000000  -0.000000   0.000000   0.001159   0.000000
      1       0.000000  -0.000019  -0.000001   0.001159   0.046884   0.000000
      2       0.000002   0.000000   0.000000   0.000000   0.000000   0.019082
      3       0.000000  -0.000048  -0.000001  -0.002719  -0.068991   0.000000
      4       0.000000  -0.000001   0.000002  -0.000676  -0.017143   0.000000
      5       0.000000  -0.002719  -0.000676   0.000000   0.000000   0.000000
      6       0.000000  -0.068991  -0.017143   0.000000   0.000007   0.000000
      7       0.019082   0.000000   0.000000   0.000000   0.000000   0.000002
      8       0.000000  -0.092040  -0.027613  -0.000000  -0.000019   0.000000
      9       0.000000  -0.027613   0.012221  -0.000000  -0.000001   0.000000
     10       0.000000  -0.000000   0.000000   0.000000   0.000003   0.000000
     11       0.000000  -0.000392   0.000083   0.000003   0.001738   0.000000
     12       0.000057   0.000000   0.000000   0.000000   0.000000   0.000581
     13       0.000000  -0.000820   0.000187  -0.000010  -0.003066   0.000000
     14       0.000000   0.000187   0.000017  -0.000005  -0.001537   0.000000
     15       0.000000  -0.000010  -0.000005   0.000000   0.000000   0.000000
     16       0.000000  -0.003066  -0.001537   0.000000   0.000177   0.000000
     17       0.000581   0.000000   0.000000   0.000000   0.000000   0.000057
     18       0.000000  -0.004988  -0.002792  -0.000000  -0.000392   0.000000
     19       0.000000  -0.002792  -0.000819   0.000000   0.000083   0.000000
     20       0.000000  -0.000341   0.000081   0.000000   0.000000   0.000000
     21       0.000000  -0.021677   0.005137   0.000000   0.000025   0.000000
     22       0.004783   0.000000   0.000000   0.000000   0.000000   0.000008
     23       0.000000  -0.033488   0.009069  -0.000000  -0.000060   0.000000
     24       0.000000   0.009069   0.002634  -0.000000  -0.000018   0.000000
     25       0.000000  -0.000000  -0.000000   0.000000   0.000120   0.000000
     26       0.000000  -0.000060  -0.000018   0.000120   0.013048   0.000000
     27       0.000008   0.000000   0.000000   0.000000   0.000000   0.004783
     28       0.000000  -0.000136  -0.000044  -0.000341  -0.021677   0.000000
     29       0.000000  -0.000044  -0.000006   0.000081   0.005137   0.000000
     30       0.000000  -0.000073   0.000030   0.000006   0.001164   0.000000
     31       0.000000  -0.001595  -0.001449   0.000000   0.000035   0.000000
     32       0.000000  -0.034145   0.023178   0.000000   0.000002   0.000000
     33       0.000000  -0.000004  -0.000002   0.000892   0.027916   0.000000
     34       0.000000  -0.052605  -0.047737   0.000000   0.000000   0.000000
     35       0.000000  -0.302012  -0.274063   0.000000   0.000000   0.000000
     36       0.235487   0.000000   0.000000   0.000000   0.000000   0.000000
     37       0.000000  -0.073678  -0.280555   0.000000  -0.000000   0.000000
     38       0.000000  -0.280555  -0.019106   0.000000   0.000000   0.000000
     39       0.000000   0.000000   0.000000   0.000002   0.042836   0.000000
     40       0.000000  -0.000000   0.000000   0.042836   0.393154   0.000000
     41       0.000000   0.000000   0.000000   0.000000   0.000000   0.235487
     42       0.000000  -0.000000   0.000000  -0.052605  -0.302012   0.000000
     43       0.000000   0.000000   0.000000  -0.047737  -0.274063   0.000000
     44       0.000000  -0.047461  -0.126669   0.000000   0.000000   0.000000
     45       0.000000  -0.000000   0.000000   0.006110   0.106041   0.000000
     46       0.000000  -0.000000   0.000000   0.000000   0.000000   0.000000
     47       0.000000  -0.000000   0.000000   0.000000   0.000000   0.000000
     48       1.000000   0.000000   0.000000   0.000000   0.000000   0.000000
     49       0.000000   1.000000   0.000000   0.000000   0.000000   0.000000
     50       0.000000   0.000000   1.000000   0.000000   0.000000   0.000000
     51       0.000000   0.000000   0.000000   1.000000   0.248362   0.000000
     52       0.000000   0.000000   0.000000   0.248362   1.000000   0.000000
     53       0.000000   0.000000   0.000000   0.000000   0.000000   1.000000
     54       0.000000   0.000000   0.000000   0.000000   0.000000   0.000000
     55       0.000000   0.000000   0.000000  -0.000000  -0.000000   0.000000
     56       0.000000  -0.078681   0.458513   0.000000   0.000000   0.000000
     57       0.000000  -0.000000  -0.000000   0.061412   0.487320   0.000000
[...]
14 C  s               0.5       0.0       1.1       2.6       0.7       4.2
14 C  px              0.3       1.7       0.0       0.1       3.7       0.3
14 C  py              0.6       3.0       1.4       1.5       0.2       0.7
15 C  s               0.5       0.0       1.1       2.6       0.7       4.2
15 C  px              0.3       1.7       0.0       0.1       3.7       0.3
15 C  py              0.6       3.0       1.4       1.5       0.2       0.7
16 H  s               0.3       3.2       2.3       3.7       0.3       3.9
17 H  s               0.3       3.2       2.3       3.7       0.3       3.9
18 H  s               2.1       3.4       0.0       0.1       5.2       0.3
19 H  s               2.1       3.4       0.0       0.1       5.2       0.3

                     48        49        50        51        52        53   
                   0.53930   0.56312   0.58640   0.61892   0.64923   0.67534
                   0.00000   0.00000   0.00000   0.00000   0.00000   0.00000
                  --------  --------  --------  --------  --------  --------
 0 C  s               0.9       0.1       2.3       0.3       0.0       4.7
 0 C  px              0.4       0.2      13.9       0.2       0.0       0.0
 0 C  py              1.9       2.0       0.3      10.2       1.0       1.6
 1 C  s               0.9       0.1       2.3       0.3       0.0       4.7
 1 C  px              0.4       0.2      13.9       0.2       0.0       0.0
 1 C  py              1.9       2.0       0.3      10.2       1.0       1.6
 2 C  s               1.8       3.0       0.1       8.7       0.0       1.3
 2 C  px              1.3       0.8       0.3       0.2       1.5      15.5
 2 C  py              0.5       0.1       7.3       0.1      10.2       1.6
 3 C  s               1.8       3.0       0.1       8.7       0.0       1.3
 3 C  px              1.3       0.8       0.3       0.2       1.5      15.5
 3 C  py              0.5       0.1       7.3       0.1      10.2       1.6
 4 C  s               0.1       4.4       0.6       1.8       0.0       6.9
 4 C  px              0.0       0.8       0.1       8.0       5.4       5.0
 4 C  py              0.3       0.0       4.2       1.6       8.0       3.7
 5 C  s               0.1       4.4       0.6       1.8       0.0       6.9
 5 C  px              0.0       0.8       0.1       8.0       5.4       5.0
 5 C  py              0.3       0.0       4.2       1.6       8.0       3.7
 6 H  s               0.2       0.1       3.0       3.0       8.0       0.2
 7 H  s               0.2       0.1       3.0       3.0       8.0       0.2
 8 H  s               1.1       0.9       1.1       1.7       9.4       1.9
 9 H  s               1.1       0.9       1.1       1.7       9.4       1.9
10 C  s               1.8       1.0       6.0       0.4       1.5       2.8
10 C  px              0.6       0.2       0.3       0.2       0.6       0.0
10 C  py              0.0       0.3       0.2       0.8       0.1       0.1
11 C  s               1.8       1.0       6.0       0.4       1.5       2.8
11 C  px              0.6       0.2       0.3       0.2       0.6       0.0
11 C  py              0.0       0.3       0.2       0.8       0.1       0.1
12 H  s               0.9       0.5       2.2       0.3       0.3       1.3
13 H  s               0.9       0.5       2.2       0.3       0.3       1.3
14 C  s              17.7      10.5       1.1       0.2       1.5       0.1
14 C  px              0.1       5.0       0.8       7.1       1.4       0.6
14 C  py              1.9       2.0       2.7       0.0       0.0       1.4
15 C  s              17.7      10.5       1.1       0.2       1.5       0.1
15 C  px              0.1       5.0       0.8       7.1       1.4       0.6
15 C  py              1.9       2.0       2.7       0.0       0.0       1.4
16 H  s              12.8       7.3       0.6       0.0       0.8       1.2
17 H  s              12.8       7.3       0.6       0.0       0.8       1.2
18 H  s               5.6      10.6       3.1       5.2       0.1       0.1
19 H  s               5.6      10.6       3.1       5.2       0.1       0.1

                     54        55        56        57        58        59   
                   0.73014   0.74008   0.79158   0.82558   0.88939   0.89643
                   0.00000   0.00000   0.00000   0.00000   0.00000   0.00000
                  --------  --------  --------  --------  --------  --------
 0 C  s               5.9       0.2       0.5       0.6       0.1       0.9
 0 C  px              0.0       1.6       5.2       0.8       0.0      11.1
 0 C  py              0.9       1.3       1.0       4.2      12.7       0.9
 1 C  s               5.9       0.2       0.5       0.6       0.1       0.9
 1 C  px              0.0       1.6       5.2       0.8       0.0      11.1
 1 C  py              0.9       1.3       1.0       4.2      12.7       0.9
 2 C  s               0.0       0.5       0.2       1.9       0.0       1.5
 2 C  px              0.0       6.2       3.8       0.2       7.1       1.5
 2 C  py              2.0       0.6       0.8       1.7       1.5       7.5
 3 C  s               0.0       0.5       0.2       1.9       0.0       1.5
 3 C  px              0.0       6.2       3.8       0.2       7.1       1.5
 3 C  py              2.0       0.6       0.8       1.7       1.5       7.5
 4 C  s               1.1       0.8       0.1       0.2       0.0       2.2
 4 C  px              0.1       4.2       4.9       1.4       4.1       3.6
 4 C  py              3.3       1.2       0.0       0.0       5.2       6.2
 5 C  s               1.1       0.8       0.1       0.2       0.0       2.2
 5 C  px              0.1       4.2       4.9       1.4       4.1       3.6
 5 C  py              3.3       1.2       0.0       0.0       5.2       6.2
 6 H  s               0.7       0.8       0.1       0.0       0.0       2.3
 7 H  s               0.7       0.8       0.1       0.0       0.0       2.3
 8 H  s               0.1       0.0       1.0       0.4       0.1       2.4
 9 H  s               0.1       0.0       1.0       0.4       0.1       2.4
10 C  s               0.8       1.5       1.2       3.5       0.9       0.0
10 C  px              5.2       0.2      12.3       4.7       3.4       5.7
10 C  py              3.5       8.9       0.0      10.3       5.4       0.0
11 C  s               0.8       1.5       1.2       3.5       0.9       0.0
11 C  px              5.2       0.2      12.3       4.7       3.4       5.7
11 C  py              3.5       8.9       0.0      10.3       5.4       0.0
12 H  s               4.3       2.9       1.4       1.2       0.8       0.1
13 H  s               4.3       2.9       1.4       1.2       0.8       0.1
14 C  s               0.3       1.1       1.6       4.7       2.1       0.3
14 C  px              3.2      11.4       0.1       9.4       3.6       0.0
14 C  py              9.4       0.4      11.5       4.2       2.6       2.8
15 C  s               0.3       1.1       1.6       4.7       2.1       0.3
15 C  px              3.2      11.4       0.1       9.4       3.6       0.0
15 C  py              9.4       0.4      11.5       4.2       2.6       2.8
16 H  s               4.7       1.9       3.3       0.0       0.1       0.9
17 H  s               4.7       1.9       3.3       0.0       0.1       0.9
18 H  s               4.7       4.3       1.0       0.6       0.1       0.2
19 H  s               4.7       4.3       1.0       0.6       0.1       0.2



                      *****************************
                      * MAYER POPULATION ANALYSIS *
                      *****************************

  NA   - Mulliken gross atomic population
  ZA   - Total nuclear charge
  QA   - Mulliken gross atomic charge
  VA   - Mayer's total valence
  BVA  - Mayer's bonded valence
  FA   - Mayer's free valence

  ATOM       NA         ZA         QA         VA         BVA        FA
  0 C      5.9088     6.0000     0.0912     3.9320     3.7930     0.1390
  1 C      5.9088     6.0000     0.0912     3.9320     3.7930     0.1390
  2 C      6.0166     6.0000    -0.0166     3.9580     3.9564     0.0015
  3 C      6.0166     6.0000    -0.0166     3.9580     3.9564     0.0015
  4 C      6.0166     6.0000    -0.0166     3.9584     3.9576     0.0008
  5 C      6.0166     6.0000    -0.0166     3.9584     3.9576     0.0008
  6 H      0.8804     1.0000     0.1196     0.9857     0.9857     0.0000
  7 H      0.8804     1.0000     0.1196     0.9857     0.9857     0.0000
  8 H      0.8818     1.0000     0.1182     0.9860     0.9860     0.0000
  9 H      0.8818     1.0000     0.1182     0.9860     0.9860     0.0000
 10 C      6.0316     6.0000    -0.0316     3.9618     3.7342     0.2277
 11 C      6.0316     6.0000    -0.0316     3.9618     3.7342     0.2277
 12 H      0.8992     1.0000     0.1008     0.9898     0.9876     0.0022
 13 H      0.8992     1.0000     0.1008     0.9898     0.9876     0.0022
 14 C      6.0707     6.0000    -0.0707     3.9471     3.5406     0.4064
 15 C      6.0707     6.0000    -0.0707     3.9471     3.5406     0.4064
 16 H      0.9083     1.0000     0.0917     0.9916     0.9879     0.0037
 17 H      0.9083     1.0000     0.0917     0.9916     0.9879     0.0037
 18 H      0.8862     1.0000     0.1138     0.9871     0.9832     0.0039
 19 H      0.8862     1.0000     0.1138     0.9871     0.9832     0.0039

  Mayer bond orders larger than 0.100000
B(  0-C ,  2-C ) :   1.2292 B(  0-C ,  5-C ) :   1.2275 B(  0-C , 11-C ) :   1.1584 
B(  1-C ,  3-C ) :   1.2292 B(  1-C ,  4-C ) :   1.2275 B(  1-C , 10-C ) :   1.1584 
B(  2-C ,  4-C ) :   1.6146 B(  2-C ,  6-H ) :   0.9599 B(  3-C ,  5-C ) :   1.6146 
B(  3-C ,  7-H ) :   0.9599 B(  4-C ,  8-H ) :   0.9593 B(  5-C ,  9-H ) :   0.9593 
B( 10-C , 12-H ) :   0.9588 B( 10-C , 14-C ) :   1.5348 B( 11-C , 13-H ) :   0.9588 
B( 11-C , 15-C ) :   1.5348 B( 14-C , 16-H ) :   0.9659 B( 14-C , 18-H ) :   0.9636 
B( 15-C , 17-H ) :   0.9659 B( 15-C , 19-H ) :   0.9636 


------------------
HIRSHFELD ANALYSIS
------------------

Total integrated alpha density =     34.999915251
Total integrated beta density  =     33.999914389

  ATOM     CHARGE      SPIN    
   0 C    0.110283    0.306115
   1 C    0.110283    0.306115
   2 C    0.031905   -0.006024
   3 C    0.031905   -0.006024
   4 C    0.034292    0.013915
   5 C    0.034292    0.013915
   6 H    0.066237    0.000153
   7 H    0.066237    0.000153
   8 H    0.064786   -0.000134
   9 H    0.064786   -0.000134
  10 C    0.011693   -0.360778
  11 C    0.011693   -0.360778
  12 H    0.053270   -0.000348
  13 H    0.053270   -0.000348
  14 C    0.013217    0.539966
  15 C    0.013217    0.539966
  16 H    0.050820    0.004289
  17 H    0.050820    0.004289
  18 H    0.063582    0.002847
  19 H    0.063582    0.002847

  TOTAL   1.000170    1.000001

-------
TIMINGS
-------

Total SCF time: 0 days 0 hours 0 min 10 sec 

Total time                  ....      10.358 sec
Sum of individual times     ....       9.587 sec  ( 92.6%)

SCF preparation             ....       2.154 sec  ( 20.8%)
Fock matrix formation       ....       2.949 sec  ( 28.5%)
  Startup                   ....       0.656 sec  ( 22.2% of F)
  Coulomb+Exchange Fock     ....       1.440 sec  ( 48.9% of F)
Diagonalization             ....       0.000 sec  (  0.0%)
Density matrix formation    ....       1.518 sec  ( 14.7%)
Total Energy calculation    ....       0.553 sec  (  5.3%)
Population analysis         ....       0.305 sec  (  2.9%)
Orbital Transformation      ....       0.182 sec  (  1.8%)
Orbital Orthonormalization  ....       0.000 sec  (  0.0%)
DIIS solution               ....       1.293 sec  ( 12.5%)
  MO trafo                  ....       0.000 sec  (  0.0 % of DIIS)
  Orb grad                  ....       0.000 sec  (  0.0 % of DIIS)
  Energy W gradient         ....       0.000 sec  (  0.0 % of DIIS)
  DIIS error                ....       0.016 sec  (  1.3 % of DIIS)
  DIIS work                 ....       0.854 sec  ( 66.0 % of DIIS)
  Form Q                    ....       0.000 sec  (  0.0 % of DIIS)
  Form QpQm                 ....       0.000 sec  (  0.0 % of DIIS)
  Exp/Cayley                ....       0.000 sec  (  0.0 % of DIIS)
  Orb update                ....       0.000 sec  (  0.0 % of DIIS)
  Wake-sleep                ....       0.329 sec  ( 25.4 % of DIIS)
SOSCF solution              ....       0.635 sec  (  6.1%)
  MO trafo                  ....       0.323 sec  ( 51.0 % of SOSCF)
  Orb grad                  ....       0.083 sec  ( 13.0 % of SOSCF)
  Rot update                ....       0.066 sec  ( 10.3 % of SOSCF)
  Step                      ....       0.163 sec  ( 25.7 % of SOSCF)
Finished LeanSCF after  10.5 sec

Maximum memory used throughout the entire LEANSCF-calculation: 9.4 MB

-------------------------   --------------------
FINAL SINGLE POINT ENERGY      -379.599099156749
-------------------------   --------------------



           ************************************************************
           *        Program running with 4 parallel MPI-processes     *
           *              working on a common directory               *
           ************************************************************

------------------------------------------------------------------------------
                              ORCA PROPERTY CALCULATIONS
------------------------------------------------------------------------------

GBWName                                 ... dvp_uhr_sto3g.gbw
Number of atoms                         ...     20
Number of basis functions               ...     60
Max core memory                         ...   2000 MB

Electric properties:
Dipole moment                           ... YES
Quadrupole moment                       ...  NO
Static polarizability (Dipole/Dipole)   ...  NO
Static polarizability (Dipole/Quad.)    ...  NO
Static polarizability (Quad./Quad.)     ...  NO
Static polarizability (Velocity)        ...  NO

Atomic electric properties:
Dipole moment                           ...  NO
Quadrupole moment                       ...  NO
Static polarizability                   ...  NO

Choice of electric origin               ... Center of mass
Position of electric origin             ...     0.000000     0.000000     0.000000

General magnetic properties:
Magnetizability                         ...  NO

EPR properties:
g-Tensor (aka g-matrix)                 ...  NO
Zero-Field splitting spin-orbit         ...  NO
Zero-field splitting spin-spin          ...  NO
Hyperfine couplings                     ...  NO (   0 nuclei)
Quadrupole couplings                    ...  NO (   0 nuclei)
Contact density                         ...  NO (   0 nuclei)

NMR properties:
Chemical shifts                         ...  NO (   0 nuclei)
Spin-rotation constants                 ...  NO (   0 nuclei)
Spin-spin couplings                     ...  NO (   0 nuclei,    0 pairs)

Choice of magnetic origin               ... GIAO
Position of magnetic origin             ...     0.000000     0.000000     0.000000

Properties with geometric perturbations:
SCF Hessian                             ...  NO
IR spectrum                             ...  NO
VCD spectrum                            ...  NO
X-ray spectroscopy properties:
SCF XES/XAS/RIXS spectra                ...  NO


-------------
DIPOLE MOMENT
-------------

Method             : SCF
Type of density    : Electron Density
Multiplicity       :   2
Irrep              :   0
Energy             :  -379.5990991567493325 Eh
Relativity type    : 
Basis              : AO
                                X                 Y                 Z
Electronic contribution:     -0.000000000      -0.000000000      -0.000000000
Nuclear contribution   :      0.000000000       0.000000000       0.000000000
                        -----------------------------------------
Total Dipole Moment    :     -0.000000000      -0.000000000      -0.000000000
                        -----------------------------------------
Magnitude (a.u.)       :      0.000000000
Magnitude (Debye)      :      0.000000000



--------------------
Rotational spectrum 
--------------------
 
Rotational constants in cm-1:             0.153923             0.022856             0.019901 
Rotational constants in MHz :          4614.502067           685.206881           596.615512 

Dipole components along the rotational axes: 
x,y,z [a.u.] :     0.000000    -0.000000    -0.000000 
x,y,z [Debye]:     0.000000    -0.000000    -0.000000 

 

Dipole moment calculation done in   0.0 sec 

Maximum memory used throughout the entire PROP-calculation: 2.5 MB

--------------------------------
SUGGESTED CITATIONS FOR THIS RUN
--------------------------------

Below you find a list of papers that are relevant to this ORCA run
We neither can nor want to force you to cite these papers, but we appreciate if you do
You receive ORCA, which is the product of decades of hard work by many enthusiastic individuals, for free
The only thing we kindly ask in return is that you cite our papers,
We deeply appreciate it, if you show your appreciation for ORCA by not just citing the generic ORCA reference.

Please note that relegating all ORCA citations to the supporting information does *not* help us.
SI sections are not indexed - citations you put there will not count into any citation statistics
But we need these citations in order to attract the funding resources that allow us to do what we are doing

Therefore, if you are a happy ORCA user, please consider citing a few of the papers listed below in the main body of your paper

In addition to the list printed below, the program has created the file dvp_uhr_sto3g.bibtex that contains the list in bibtex format
You can import this file easily into all common literature databanks and citation aid programs


List of essential papers. We consider these as the minimum necessary citations

  1. Neese,F.
     Software update: the ORCA program system, version 5.0
     WIRES Comput. Molec. Sci., 2022 12(1)e1606
     doi.org/10.1002/wcms.1606

List of papers to cite with high priority. The work reported in these papers was absolutely
necessary for this run to complete.
Our perspective: the developers of density functionals and basis sets usually get cited in chemistry papers
Good! But without the algorithms to do something with them, the functionals or basis sets would not do anything.
Hence, in our opinion, the algorithm design and method developments papers are equally worthy of getting cited

  1. Neese,F.
     The SHARK Integral Generation and Digestion System
     J. Comp. Chem., 2022  1-16
     doi.org/10.1002/jcc.26942

List of suggested additional citations. These are papers that are important in the 'surrounding' of 
of this run, or papers that preceded the highly important papers. If you like your results we are grateful for a citation.

  1. Neese,F.
     The ORCA program system
     WIRES Comput. Molec. Sci., 2012 2(1)73-78
     doi.org/10.1002/wcms.81
  2. Neese,F.
     Software update: the ORCA program system, version 4.0
     WIRES Comput. Molec. Sci., 2018 8(1)1-6
     doi.org/10.1002/wcms.1327
  3. Neese,F.; Wennmohs,F.; Becker,U.; Riplinger,C.
     The ORCA quantum chemistry program package
     J. Chem. Phys., 2020 152 Art. No. L224108
     doi.org/10.1063/5.0004608

List of optional additional citations

  1. Neese,F.
     Approximate second-order SCF convergence for spin unrestricted wavefunctions
     Chem. Phys. Lett., 2000 325(1-3)93-98
     doi.org/10.1016/s0009-2614(00)00662-x

Timings for individual modules:

Sum of individual times          ...       24.334 sec (=   0.406 min)
Startup calculation              ...        5.322 sec (=   0.089 min)  21.9 %
SCF iterations                   ...       15.629 sec (=   0.260 min)  64.2 %
Property calculations            ...        3.383 sec (=   0.056 min)  13.9 %
                             ****ORCA TERMINATED NORMALLY****
TOTAL RUN TIME: 0 days 0 hours 0 minutes 28 seconds 493 msec
