
                                 *****************
                                 * O   R   C   A *
                                 *****************

                                            #,                                       
                                            ###                                      
                                            ####                                     
                                            #####                                    
                                            ######                                   
                                           ########,                                 
                                     ,,################,,,,,                         
                               ,,#################################,,                 
                          ,,##########################################,,             
                       ,#########################################, ''#####,          
                    ,#############################################,,   '####,        
                  ,##################################################,,,,####,       
                ,###########''''           ''''###############################       
              ,#####''   ,,,,##########,,,,          '''####'''          '####       
            ,##' ,,,,###########################,,,                        '##       
           ' ,,###''''                  '''############,,,                           
         ,,##''                                '''############,,,,        ,,,,,,###''
      ,#''                                            '''#######################'''  
     '                                                          ''''####''''         
             ,#######,   #######,   ,#######,      ##                                
            ,#'     '#,  ##    ##  ,#'     '#,    #''#        ,####,   ,####,        
            ##       ##  ##   ,#'  ##            #'  '#       #'       #'  '#        
            ##       ##  #######   ##           ,######,      #####,   #    #        
            '#,     ,#'  ##    ##  '#,     ,#' ,#      #,     #,   #   #,  ,#        
             '#######'   ##     ##  '#######'  #'      '#     '####' # '####'        



                #########################################################
                #                        -***-                          #
                #          Department of theory and spectroscopy        #
                #                                                       #
                #                      Frank Neese                      #
                #                                                       #
                #     Directorship, Architecture, Infrastructure        #
                #                    SHARK, DRIVERS                     #
                #        Core code/Algorithms in most modules           #
                #                                                       #
                #        Max Planck Institute fuer Kohlenforschung      #
                #                Kaiser Wilhelm Platz 1                 #
                #                 D-45470 Muelheim/Ruhr                 #
                #                      Germany                          #
                #                                                       #
                #                  All rights reserved                  #
                #                        -***-                          #
                #########################################################


                         Program Version 6.0.1  -  RELEASE   -


 With contributions from (in alphabetic order):
[Max-Planck-Institut fuer Kohlenforschung]                               
  Daniel Aravena         : Magnetic Suceptibility                        
  Michael Atanasov       : Ab Initio Ligand Field Theory (pilot matlab implementation)
  Alexander A. Auer      : GIAO ZORA, VPT2 properties, NMR spectrum      
  Ute Becker             : All parallelization in ORCA, NUMFREQ, NUMCALC 
  Giovanni Bistoni       : ED, misc. LED, open-shell LED, HFLD           
  Martin Brehm           : Molecular dynamics                            
  Dmytro Bykov           : pre 5.0 version of the SCF Hessian            
  Marcos Casanova-Páez   : Triplet and SCS-CIS(D). UHF-(DLPNO)-IP/EA/STEOM-CCSD. UHF-CVS-IP/STEOM-CCSD   
  Vijay G. Chilkuri      : MRCI spin determinant printing, contributions to CSF-ICE 
  Pauline Colinet        : FMM embedding                                 
  Dipayan Datta          : RHF DLPNO-CCSD density                        
  Achintya Kumar Dutta   : EOM-CC, STEOM-CC                              
  Nicolas Foglia         : Exact transition moments, OPA infrastructure, MCD improvements    
  Dmitry Ganyushin       : Spin-Orbit,Spin-Spin,Magnetic field MRCI      
  Miquel Garcia-Rates    : C-PCM and meta-GGA Hessian, CCSD/C-PCM, Gaussian charge scheme 
  Tiago L. C. Gouveia    : GS-ROHF, GS-ROCIS                             
  Yang Guo               : DLPNO-NEVPT2, F12-NEVPT2, CIM, IAO-localization        
  Andreas Hansen         : Spin unrestricted coupled pair/coupled cluster methods 
  Ingolf Harden          : AUTO-CI MPn and infrastructure                
  Benjamin Helmich-Paris : MC-RPA, TRAH-(SCF,CASSCF), AVAS, COSX integrals, SCF dyn. polar. 
  Lee Huntington         : MR-EOM, pCC                                   
  Robert Izsak           : Overlap fitted RIJCOSX, COSX-SCS-MP3, EOM     
  Riya Kayal             : Wick's Theorem for AUTO-CI, AUTO-CI UHF-CCSDT 
  Emily Kempfer          : AUTO-CI, RHF CISDT and CCSDT                  
  Christian Kollmar      : KDIIS, OOCD, Brueckner-CCSD(T), CCSD density, CASPT2, CASPT2-K, improved NEVPT2 
  Axel Koslowski         : Symmetry handling                             
  Simone Kossmann        : meta-GGA functionals, TD-DFT gradient, OOMP2, (MP2 Hessian; deprecated post 5.0) 
  Lucas Lang             : DCDCAS                                        
  Marvin Lechner         : AUTO-CI (C++ implementation), FIC-MRCC        
  Spencer Leger          : CASSCF response                               
  Dagmar Lenk            : GEPOL surface, SMD, ORCA-2-JSON               
  Dimitrios Liakos       : Extrapolation schemes; Compound Job, initial MDCI parallelization 
  Dimitrios Manganas     : Further ROCIS development; embedding schemes. LFT, Crystal Embedding 
  Dimitrios Pantazis     : SARC Basis sets                               
  Anastasios Papadopoulos: AUTO-CI, single reference methods and gradients 
  Taras Petrenko         : pre 6.0 DFT Hessian and TD-DFT gradient, (ASA, deprecated), ECA, 1-Electron XAS/XES, NRVS 
  Peter Pinski           : DLPNO-MP2, DLPNO-MP2 Gradient                 
  Christoph Reimann      : Effective Core Potentials                     
  Marius Retegan         : Local ZFS, SOC                                
  Christoph Riplinger    : Optimizer, TS searches, QM/MM, DLPNO-CCSD(T), (RO)-DLPNO pert. Triples 
  Michael Roemelt        : Original ROCIS implementation                 
  Masaaki Saitow         : Open-shell DLPNO-CCSD energy and density      
  Barbara Sandhoefer     : DKH picture change effects                    
  Kantharuban Sivalingam : CASSCF convergence/infrastructure, NEVPT2 and variants, FIC-MRCI 
  Bernardo de Souza      : ESD, SOC TD-DFT                               
  Georgi L. Stoychev     : AutoAux, RI-MP2 NMR, DLPNO-MP2 response, X2C  
  Van Anh Tran           : RI-MP2 g-tensors                              
  Willem Van den Heuvel  : Paramagnetic NMR                              
  Zikuan Wang            : NOTCH, Electric field optimization            
  Frank Wennmohs         : Technical directorship and infrastructure     
  Hang Xu                : AUTO-CI-Response properties                   
                                                                         
[FACCTs GmbH]                                                            
  Markus Bursch, Miquel Garcia-Rates, Christoph Riplinger, Bernardo de Souza, Georgi L. Stoychev 
                                                                 
  APM, Basis sets (HGBS, AHGBS, def-TZVP (Ac-Lr), def2-XVPD (La-Lu)), CI-OPT, improved COSX, DLPNO-Multilevel,           
  DOCKER, DRACO, updates on ESD, GOAT, IRC, LR-CPCM, MBIS, meta-GGA TD-DFT gradient, ML-optimized integration grids, 
  MM, NACMEs, nearIR, NEB, NEB-TS, NL-DFT gradient (VV10), 2- and 3-layer-ONIOM, interface openCOSMO-RS, QMMM,   
  Crystal-QMMM, SF, symmetry and pop. for TD-DFT, r2SCAN hybrids, SOLVATOR                                   
                                                                         
[Other institutions]                                                     
  V. Asgeirsson          : NEB                                           
  Christoph Bannwarth    : sTDA-DFT, sTD-DFT, PBEh-3c, B97-3c, D3        
  Sebastian Ehlert       : rSCAN, r2SCAN, r2SCAN-3c, D4, dhf basis sets  
  Marvin Friede          : D4 for Fr, Ra, Ac-Lr                          
  Lars Goerigk           : TD-DFT with DH, B97 family of functionals     
  Stefan Grimme          : VdW corrections, initial TS optimization, DFT functionals, gCP, sTDA/sTD-DF 
  Waldemar Hujo          : DFT-NL                                        
  H. Jonsson             : NEB                                           
  Holger Kruse           : gCP                                           
  Marcel Mueller         : wB97X-3c, vDZP basis set                      
  Hagen Neugebauer       : wr2SCAN                                       
  Tobias Risthaus        : range-separated hybrid DFT                    
  Lukas Wittmann         : regularized MP2, r2SCAN double-hybrids, wr2SCAN        
                                                                         
We gratefully acknowledge several colleagues who have allowed us to      
interface, adapt or use parts of their codes:                            
  Ed Valeev, F. Pavosevic, A. Kumar             : LibInt (2-el integral package), F12 methods 
  Garnet Chan, S. Sharma, J. Yang, R. Olivares  : DMRG                   
  Ulf Ekstrom                                   : XCFun DFT Library      
  Mihaly Kallay                                 : mrcc  (arbitrary order and MRCC methods)
  Frank Weinhold                                : gennbo (NPA and NBO analysis)           
  Simon Mueller                                 : openCOSMO-RS                            
  Christopher J. Cramer and Donald G. Truhlar   : smd solvation model                     
  S Lehtola, MJT Oliveira, MAL Marques          : LibXC Library                           
  Liviu Ungur et al                             : ANISO software                          


 Your calculation uses the libint2 library for the computation of 2-el integrals
 For citations please refer to: http://libint.valeyev.net

 Your ORCA version has been built with support for libXC version: 6.2.2
 For citations please refer to: https://libxc.gitlab.io

 This ORCA versions uses:
   CBLAS   interface :  Fast vector & matrix operations
   LAPACKE interface :  Fast linear algebra routines
   SCALAPACK package :  Parallel linear algebra routines
   Shared memory     :  Shared parallel matrices
   BLAS/LAPACK       :  OpenBLAS 0.3.27  USE64BITINT DYNAMIC_ARCH NO_AFFINITY SapphireRapids SINGLE_THREADED
        Core in use  :  SapphireRapids
   Copyright (c) 2011-2014, The OpenBLAS Project


NOTE: MaxCore=2000 MB was set to SCF,MP2,MDCI,CIPSI,MRCI and CIS
      => If you want to overwrite this, your respective input block should be placed after the MaxCore statement
================================================================================

----- Orbital basis set information -----
Your calculation utilizes the basis: aug-cc-pCVQZ 
             H : aug-cc-pVQZ. Obtained from the ccRepo (grant-hill.group.shef.ac.uk/ccrepo) Feb. 2017
                 R. A. Kendall, T. H. Dunning, Jr., R. J. Harrison, J. Chem. Phys. 96, 6796 (1992)
            He : aug-cc-pVQZ. Obtained from the ccRepo (grant-hill.group.shef.ac.uk/ccrepo) Feb. 2017
                 D. E. Woon, T. H. Dunning, Jr., J. Chem. Phys. 100, 2975 (1994)
  Li-Be, Na-Mg : Obtained from the Peterson Research Group Website (tyr0.chem.wsu.edu/~kipeters) Feb. 2017
                 B. P. Prascher, D. E. Woon, K. A. Peterson, T. H. Dunning, Jr., A. K. Wilson, Theor. Chem. Acc. 128, 69 (2011)
          B-Ne : Obtained from the EMSL Basis Set Exchange (bse.pnl.gov) Feb. 2017
                 K. A. Peterson, T. H. Dunning, Jr., J. Chem. Phys. 117, 10548 (2002)
                 R. A. Kendall, T. H. Dunning, Jr., R. J. Harrison, J. Chem. Phys. 96, 6796 (1992)
         Al-Ar : Obtained from the EMSL Basis Set Exchange (bse.pnl.gov) Feb. 2017
                 K. A. Peterson, T. H. Dunning, Jr., J. Chem. Phys. 117, 10548 (2002)
                 D. E. Woon, T. H. Dunning, Jr., J. Chem. Phys. 98, 1358 (1993)
         Ga-Kr : Obtained from the Peterson Research Group Website (tyr0.chem.wsu.edu/~kipeters) Feb. 2017
                 Diffuse functions obtained from the ccRepo (grant-hill.group.shef.ac.uk/ccrepo) Feb. 2017
                 N. J. DeYonker, K. A. Peterson, A. K. Wilson, J. Phys. Chem. A 111, 11383 (2007)
                 A. K. Wilson, D. E. Woon, K. A. Peterson, T. H. Dunning, Jr., J. Chem. Phys. 110, 7667 (1999)

================================================================================
                                        WARNINGS
                       Please study these warnings very carefully!
================================================================================


================================================================================
                                       INPUT FILE
================================================================================
NAME = large_basis_c.inp
|  1> !  hf aug-cc-pCVQZ sp 
|  2> 
|  3> %output
|  4>  printlevel normal
|  5>  print[ p_basis ] 2
|  6>  print[ p_mos ] 1
|  7>  print[ p_overlap ] 1
|  8>  print[ p_hirshfeld ] 1
|  9>  end 
| 10> 
| 11> * xyz 0 1
| 12> C            -1.41525000     0.23022000     0.00000000
| 13> *
| 14> %pal
| 15>  nprocs 1
| 16> end
| 17> %MaxCore 2000
| 18> 
| 19>                          ****END OF INPUT****
================================================================================

                       ****************************
                       * Single Point Calculation *
                       ****************************

---------------------------------
CARTESIAN COORDINATES (ANGSTROEM)
---------------------------------
  C     -1.415250    0.230220    0.000000

----------------------------
CARTESIAN COORDINATES (A.U.)
----------------------------
  NO LB      ZA    FRAG     MASS         X           Y           Z
   0 C     6.0000    0    12.011   -2.674435    0.435053    0.000000

--------------------------------
INTERNAL COORDINATES (ANGSTROEM)
--------------------------------
 C      0   0   0     0.000000000000     0.00000000     0.00000000

---------------------------
INTERNAL COORDINATES (A.U.)
---------------------------
 C      0   0   0     0.000000000000     0.00000000     0.00000000

---------------------
BASIS SET INFORMATION
---------------------
There are 1 groups of distinct atoms

 Group   1 Type C   : 25s10p6d4f2g contracted to 9s8p6d4f2g pattern {991111111/31111111/111111/1111/11}

Atom   0C    basis set group =>   1

-------------------------
BASIS SET IN INPUT FORMAT
-------------------------

 # Basis set for element : C 
 NewGTO C 
 S 9 
   1   33980.0000000000      0.0000916345
   2    5089.0000000000      0.0007089090
   3    1157.0000000000      0.0037187514
   4     326.6000000000      0.0154671057
   5     106.1000000000      0.0532980755
   6      38.1100000000      0.1480683352
   7      14.7500000000      0.3077621740
   8       6.0350000000      0.4021296445
   9       2.5300000000      0.2185645031
 S 9 
   1   33980.0000000000     -0.0000557104
   2    5089.0000000000     -0.0004427508
   3    1157.0000000000     -0.0023017175
   4     326.6000000000     -0.0097463809
   5     106.1000000000     -0.0337546140
   6      38.1100000000     -0.1001613634
   7      14.7500000000     -0.2262808226
   8       6.0350000000     -0.4148750525
   9       2.5300000000     -0.3460463685
 S 1 
   1       0.7355000000      1.0000000000
 S 1 
   1       0.2905000000      1.0000000000
 S 1 
   1       0.1111000000      1.0000000000
 S 1 
   1       7.2160000000      1.0000000000
 S 1 
   1      19.5700000000      1.0000000000
 S 1 
   1      53.0730000000      1.0000000000
 S 1 
   1       0.0414500000      1.0000000000
 P 3 
   1      34.5100000000      0.0316878552
   2       7.9150000000      0.2128943073
   3       2.3680000000      0.8395867520
 P 1 
   1       0.8132000000      1.0000000000
 P 1 
   1       0.2890000000      1.0000000000
 P 1 
   1       0.1007000000      1.0000000000
 P 1 
   1       8.1820000000      1.0000000000
 P 1 
   1      24.1860000000      1.0000000000
 P 1 
   1      71.4940000000      1.0000000000
 P 1 
   1       0.0321800000      1.0000000000
 D 1 
   1       1.8480000000      1.0000000000
 D 1 
   1       0.6490000000      1.0000000000
 D 1 
   1       0.2280000000      1.0000000000
 D 1 
   1       8.6560000000      1.0000000000
 D 1 
   1      33.2130000000      1.0000000000
 D 1 
   1       0.0766000000      1.0000000000
 F 1 
   1       1.4190000000      1.0000000000
 F 1 
   1       0.4850000000      1.0000000000
 F 1 
   1      24.6940000000      1.0000000000
 F 1 
   1       0.1870000000      1.0000000000
 G 1 
   1       1.0110000000      1.0000000000
 G 1 
   1       0.4240000000      1.0000000000
  end;

------------------------------------------------------------------------------
                             ORCA STARTUP CALCULATIONS
------------------------------------------------------------------------------
------------------------------------------------------------------------------
                   ___                                                        
                  /   \      - P O W E R E D   B Y -                         
                 /     \                                                     
                 |  |  |   _    _      __       _____    __    __             
                 |  |  |  | |  | |    /  \     |  _  \  |  |  /  |          
                  \  \/   | |  | |   /    \    | | | |  |  | /  /          
                 / \  \   | |__| |  /  /\  \   | |_| |  |  |/  /          
                |  |  |   |  __  | /  /__\  \  |    /   |      \           
                |  |  |   | |  | | |   __   |  |    \   |  |\   \          
                \     /   | |  | | |  |  |  |  | |\  \  |  | \   \       
                 \___/    |_|  |_| |__|  |__|  |_| \__\ |__|  \__/        
                                                                              
                      - O R C A' S   B I G   F R I E N D -                    
                                      &                                       
                       - I N T E G R A L  F E E D E R -                       
                                                                              
 v1 FN, 2020, v2 2021, v3 2022-2024                                           
------------------------------------------------------------------------------


----------------------
SHARK INTEGRAL PACKAGE
----------------------

Number of atoms                             ...      1
Number of basis functions                   ...    116
Number of shells                            ...     36
Maximum angular momentum                    ...      4
Integral batch strategy                     ... SHARK/LIBINT Hybrid
RI-J (if used) integral strategy            ... SPLIT-RIJ (Revised 2003 algorithm where possible)
Printlevel                                  ...      1
Contraction scheme used                     ... PARTIAL GENERAL contraction
Prescreening option                         ... SCHWARTZ
   Thresh                                   ... 1.000e-10
   Tcut                                     ... 1.000e-11
   Tpresel                                  ... 1.000e-11 
Coulomb Range Separation                    ... NOT USED
Exchange Range Separation                   ... NOT USED
Multipole approximations                    ... NOT USED
Finite Nucleus Model                        ... NOT USED
CABS basis                                  ... NOT available
Auxiliary Coulomb fitting basis             ... NOT available
Auxiliary J/K fitting basis                 ... NOT available
Auxiliary Correlation fitting basis         ... NOT available
Auxiliary 'external' fitting basis          ... NOT available

Checking pre-screening integrals            ... done (  0.0 sec) Dimension = 36
Save PGC pre-screening integrals            ... done (  0.0 sec) Dimension = 36
Calculate PGC overlap integrals             ... done (  0.0 sec) Dimension = 29
Calculating pre-screening integrals (ORCA)  ... done (  0.1 sec) Dimension = 29
Check shell pair data                       ... done (  0.0 sec)
Shell pair information
Shell pair cut-off parameter TPreSel        ...   1.0e-11
Total number of shell pairs                 ...       666
Shell pairs after pre-screening             ...       664
Total number of primitive shell pairs       ...       744
Primitive shell pairs kept                  ...       742
          la=0 lb=0:    136 shell pairs
          la=1 lb=0:    128 shell pairs
          la=1 lb=1:     36 shell pairs
          la=2 lb=0:     96 shell pairs
          la=2 lb=1:     48 shell pairs
          la=2 lb=2:     21 shell pairs
          la=3 lb=0:     64 shell pairs
          la=3 lb=1:     32 shell pairs
          la=3 lb=2:     24 shell pairs
          la=3 lb=3:     10 shell pairs
          la=4 lb=0:     30 shell pairs
          la=4 lb=1:     16 shell pairs
          la=4 lb=2:     12 shell pairs
          la=4 lb=3:      8 shell pairs
          la=4 lb=4:      3 shell pairs

Calculating one electron integrals          ... done (  0.0 sec)
Calculating Nuclear repulsion               ... done (  0.0 sec) ENN=      0.000000000000 Eh

Diagonalization of the overlap matrix:
Smallest eigenvalue                        ... 1.390e-04
Time for diagonalization                   ...    0.001 sec
Threshold for overlap eigenvalues          ... 1.000e-07
Number of eigenvalues below threshold      ... 0
Time for construction of square roots      ...    0.007 sec
Total time needed                          ...    0.019 sec

-------------------
DFT GRID GENERATION
-------------------

General Integration Accuracy     IntAcc      ... 4.388
Radial Grid Type                 RadialGrid  ... OptM3 with GC (2021)
Angular Grid (max. ang.)         AngularGrid ... 4 (Lebedev-302)
Angular grid pruning method      GridPruning ... 4 (adaptive)
Weight generation scheme         WeightScheme... mBecke (2022)
Basis function cutoff            BFCut       ... 1.0000e-10
Integration weight cutoff        WCut        ... 1.0000e-14
Partially contracted basis set               ... off
Rotationally invariant grid construction     ... off
Angular grids for H and He will be reduced by one unit
Diffuse basis detected: some atoms will have their outermost
                        angular grid increased by 1.
Core-polarized basis detected: some atoms will have their core
                               angular grid increased.

Total number of grid points                  ...     8224
Total number of batches                      ...      129
Average number of points per batch           ...       63
Average number of grid points per atom       ...     8224

---------------------
SHARK GRID GENERATION
---------------------

General Integration Accuracy     IntAcc      ... 4.388
Radial Grid Type                 RadialGrid  ... OptM3 with GC (2021)
Angular Grid (max. ang.)         AngularGrid ... 4 (Lebedev-302)
Angular grid pruning method      GridPruning ... 4 (adaptive)
Weight generation scheme         WeightScheme... mBecke (2022)
Basis function cutoff            BFCut       ... 1.0000e-10
Integration weight cutoff        WCut        ... 1.0000e-14
Partially contracted basis set               ... off
Rotationally invariant grid construction     ... off
Angular grids for H and He will be reduced by one unit
Diffuse basis detected: some atoms will have their outermost
                        angular grid increased by 1.
Core-polarized basis detected: some atoms will have their core
                               angular grid increased.
Steep s-basis detected: some atoms will have their radial
                        grid points doubled.

Total number of grid points                  ...    16556
Total number of batches                      ...      259
Average number of points per batch           ...       63
Average number of grid points per atom       ...    16556
Initializing property integral containers    ... done (  0.0 sec)

SHARK setup successfully completed in   0.5 seconds

Maximum memory used throughout the entire STARTUP-calculation: 32.5 MB
-------------------------------------------------------------------------------
                                 ORCA GUESS
                   Start orbitals & Density for SCF / CASSCF
-------------------------------------------------------------------------------

------------
SCF SETTINGS
------------
Hamiltonian:
 Ab initio Hamiltonian  Method          .... Hartree-Fock(GTOs)


General Settings:
 Integral files         IntName         .... large_basis_c
 Hartree-Fock type      HFTyp           .... RHF
 Total Charge           Charge          ....    0
 Multiplicity           Mult            ....    1
 Number of Electrons    NEL             ....    6
 Basis Dimension        Dim             ....  109
 Nuclear Repulsion      ENuc            ....      0.0000000000 Eh

Convergence Acceleration:
 AO-DIIS                CNVDIIS         .... on
   Start iteration      DIISMaxIt       ....    12
   Startup error        DIISStart       ....  0.200000
   # of expansion vecs  DIISMaxEq       ....     5
   Bias factor          DIISBfac        ....   1.050
   Max. coefficient     DIISMaxC        ....  10.000
 MO-DIIS                CNVKDIIS        .... off
 Trust-Rad. Augm. Hess. CNVTRAH         .... auto
   Auto Start mean grad. ratio tolernc. ....  1.125000
   Auto Start start iteration           ....    50
   Auto Start num. interpolation iter.  ....    10
   Max. Number of Micro iterations      ....    24
   Max. Number of Macro iterations      .... Maxiter - #DIIS iter
   Number of Davidson start vectors     ....     2
   Converg. threshold    (grad. norm)   ....   5.000e-05
   Grad. Scal. Fac. for Micro threshold ....   0.100
   Minimum threshold for Micro iter.    ....   1.000e-02
   NR start threshold (gradient norm)   ....   1.000e-04
   Initial trust radius                 ....   0.400
   Minimum AH scaling param. (alpha)    ....   1.000
   Maximum AH scaling param. (alpha)    .... 1000.000
   Quad. conv. algorithm                .... NR
   White noise on init. David. guess    .... on
   Maximum white noise                  ....   0.010
   Pseudo random numbers                .... off
   Inactive MOs                         .... canonical
   Orbital update algorithm             .... Taylor
   Preconditioner                       .... Diag
   Full preconditioner red. dimension   ....   250
 SOSCF                  CNVSOSCF        .... on
   Start iteration      SOSCFMaxIt      ....   150
   Startup grad/error   SOSCFStart      ....  0.003300
   Hessian update       SOSCFHessUp     .... L-BFGS
 Level Shifting         CNVShift        .... on
   Level shift para.    LevelShift      ....    0.2500
   Turn off err/grad.   ShiftErr        ....    0.0010
 Zerner damping         CNVZerner       .... off
 Static damping         CNVDamp         .... on
   Fraction old density DampFac         ....    0.7000
   Max. Damping (<1)    DampMax         ....    0.9800
   Min. Damping (>=0)   DampMin         ....    0.0000
   Turn off err/grad.   DampErr         ....    0.1000

SCF Procedure:
 Maximum # iterations   MaxIter         ....   125
 SCF integral mode      SCFMode         .... Direct
   Integral package                     .... SHARK and LIBINT hybrid scheme
 Reset frequency        DirectResetFreq ....    20
 Integral Threshold     Thresh          ....  1.000e-10 Eh
 Primitive CutOff       TCut            ....  1.000e-11 Eh

Convergence Tolerance:
 Convergence Check Mode ConvCheckMode   .... Total+1el-Energy
 Convergence forced     ConvForced      .... 0
 Energy Change          TolE            ....  1.000e-06 Eh
 1-El. energy change                    ....  1.000e-03 Eh
 Orbital Gradient       TolG            ....  5.000e-05
 Orbital Rotation angle TolX            ....  5.000e-05
 DIIS Error             TolErr          ....  1.000e-06

------------------------------
INITIAL GUESS: MODEL POTENTIAL
------------------------------
Loading Hartree-Fock densities                     ... done
Calculating cut-offs                               ... done
Initializing the effective Hamiltonian             ... done
Setting up the integral package (SHARK)            ... done
Starting the Coulomb interaction                   ... done (   0.0 sec)
Making the grid                                    ... done (   0.0 sec)
Mapping shells                                     ... done
Starting the XC term evaluation                    ... done (   0.0 sec)
Transforming the Hamiltonian                       ... done (   0.0 sec)
Diagonalizing the Hamiltonian                      ... done (   0.0 sec)
Back transforming the eigenvectors                 ... done (   0.0 sec)
Now organizing SCF variables                       ... done
                      ------------------
                      INITIAL GUESS DONE (   0.1 sec)
                      ------------------
             **** ENERGY FILE WAS UPDATED (large_basis_c.en.tmp) ****
Finished Guess after   0.3 sec
Maximum memory used throughout the entire GUESS-calculation: 12.0 MB

-------------------------------------------------------------------------------------------
                                      ORCA LEAN-SCF
                              memory conserving SCF solver
-------------------------------------------------------------------------------------------

--------------
OVERLAP MATRIX
--------------
                  0          1          2          3          4          5    
      0       1.000000  -0.990409   0.474885   0.269692   0.139145   0.972915
      1      -0.990409   1.000000  -0.547572  -0.317594  -0.165443  -0.978424
      2       0.474885  -0.547572   1.000000   0.855304   0.554945   0.441094
      3       0.269692  -0.317594   0.855304   1.000000   0.846252   0.239591
      4       0.139145  -0.165443   0.554945   0.846252   1.000000   0.120824
      5       0.972915  -0.978424   0.441094   0.239591   0.120824   1.000000
      6       0.903487  -0.839757   0.228431   0.117656   0.058003   0.835793
      7       0.682795  -0.593511   0.111908   0.056454   0.027594   0.523077
      8       0.068047  -0.081226   0.301325   0.537575   0.839181   0.058511
      9       0.000000   0.000000   0.000000   0.000000   0.000000   0.000000
     10      -0.000000   0.000000   0.000000   0.000000  -0.000000   0.000000
     11       0.000000  -0.000000  -0.000000   0.000000  -0.000000  -0.000000
     12       0.000000   0.000000   0.000000   0.000000   0.000000   0.000000
     13      -0.000000   0.000000   0.000000   0.000000   0.000000  -0.000000
     14       0.000000  -0.000000   0.000000   0.000000   0.000000   0.000000
     15       0.000000   0.000000   0.000000   0.000000   0.000000   0.000000
     16      -0.000000   0.000000   0.000000  -0.000000  -0.000000  -0.000000
     17       0.000000   0.000000   0.000000   0.000000   0.000000   0.000000
     18       0.000000   0.000000   0.000000   0.000000   0.000000   0.000000
     19      -0.000000   0.000000   0.000000   0.000000  -0.000000   0.000000
     20       0.000000  -0.000000  -0.000000  -0.000000   0.000000   0.000000
     21       0.000000   0.000000   0.000000   0.000000   0.000000   0.000000
     22       0.000000  -0.000000   0.000000   0.000000   0.000000   0.000000
     23      -0.000000   0.000000   0.000000  -0.000000  -0.000000   0.000000
     24       0.000000   0.000000   0.000000   0.000000   0.000000   0.000000
     25       0.000000  -0.000000   0.000000   0.000000   0.000000   0.000000
     26       0.000000  -0.000000  -0.000000  -0.000000   0.000000   0.000000
     27       0.000000   0.000000   0.000000   0.000000   0.000000   0.000000
     28      -0.000000   0.000000   0.000000  -0.000000   0.000000   0.000000
     29       0.000000  -0.000000   0.000000   0.000000   0.000000   0.000000
     30       0.000000   0.000000   0.000000   0.000000   0.000000   0.000000
     31      -0.000000   0.000000   0.000000  -0.000000   0.000000   0.000000
     32      -0.000000   0.000000   0.000000   0.000000  -0.000000  -0.000000
     33      -0.000000   0.000000   0.000000   0.000000   0.000000   0.000000
     34       0.000000   0.000000   0.000000   0.000000   0.000000   0.000000
     35       0.000000   0.000000   0.000000   0.000000   0.000000   0.000000
     36      -0.000000   0.000000  -0.000000  -0.000000  -0.000000  -0.000000
     37      -0.000000   0.000000  -0.000000   0.000000  -0.000000   0.000000
     38       0.000000  -0.000000  -0.000000   0.000000   0.000000   0.000000
     39       0.000000   0.000000   0.000000   0.000000   0.000000   0.000000
     40       0.000000   0.000000   0.000000   0.000000   0.000000   0.000000
     41      -0.000000   0.000000  -0.000000  -0.000000  -0.000000  -0.000000
     42      -0.000000   0.000000  -0.000000  -0.000000   0.000000   0.000000
     43      -0.000000   0.000000   0.000000  -0.000000  -0.000000  -0.000000
     44       0.000000   0.000000   0.000000   0.000000   0.000000   0.000000
     45       0.000000   0.000000   0.000000   0.000000   0.000000   0.000000
     46      -0.000000   0.000000  -0.000000  -0.000000  -0.000000  -0.000000
     47       0.000000   0.000000   0.000000   0.000000   0.000000   0.000000
     48      -0.000000   0.000000  -0.000000   0.000000  -0.000000  -0.000000
     49       0.000000   0.000000   0.000000   0.000000   0.000000   0.000000
     50       0.000000   0.000000   0.000000   0.000000   0.000000   0.000000
     51      -0.000000   0.000000  -0.000000  -0.000000  -0.000000  -0.000000
     52      -0.000000   0.000000   0.000000   0.000000   0.000000   0.000000
     53      -0.000000   0.000000   0.000000  -0.000000   0.000000   0.000000
     54       0.000000   0.000000   0.000000   0.000000   0.000000   0.000000
     55       0.000000   0.000000   0.000000   0.000000   0.000000   0.000000
     56      -0.000000   0.000000  -0.000000  -0.000000  -0.000000  -0.000000
     57      -0.000000   0.000000   0.000000   0.000000   0.000000   0.000000
     58       0.000000  -0.000000  -0.000000   0.000000   0.000000   0.000000
     59       0.000000   0.000000   0.000000   0.000000   0.000000   0.000000
     60       0.000000   0.000000   0.000000   0.000000   0.000000   0.000000
     61      -0.000000   0.000000  -0.000000  -0.000000  -0.000000  -0.000000
     62      -0.000000   0.000000   0.000000   0.000000  -0.000000  -0.000000
     63       0.000000   0.000000   0.000000   0.000000   0.000000   0.000000
     64      -0.000000   0.000000   0.000000   0.000000   0.000000   0.000000
     65      -0.000000   0.000000   0.000000   0.000000  -0.000000   0.000000
     66       0.000000   0.000000   0.000000   0.000000   0.000000   0.000000
     67       0.000000   0.000000   0.000000   0.000000   0.000000   0.000000
     68      -0.000000   0.000000   0.000000   0.000000   0.000000   0.000000
     69       0.000000  -0.000000   0.000000   0.000000   0.000000   0.000000
     70       0.000000   0.000000   0.000000   0.000000   0.000000   0.000000
     71      -0.000000   0.000000   0.000000   0.000000   0.000000   0.000000
     72      -0.000000   0.000000   0.000000  -0.000000   0.000000   0.000000
     73       0.000000   0.000000   0.000000   0.000000   0.000000   0.000000
     74       0.000000   0.000000   0.000000   0.000000   0.000000   0.000000
     75       0.000000  -0.000000   0.000000   0.000000   0.000000  -0.000000
     76       0.000000  -0.000000   0.000000  -0.000000  -0.000000   0.000000
     77       0.000000   0.000000   0.000000   0.000000   0.000000   0.000000
     78      -0.000000   0.000000   0.000000   0.000000   0.000000  -0.000000
     79       0.000000  -0.000000   0.000000   0.000000   0.000000   0.000000
     80       0.000000   0.000000   0.000000   0.000000   0.000000   0.000000
     81       0.000000   0.000000   0.000000   0.000000   0.000000   0.000000
     82      -0.000000   0.000000   0.000000   0.000000   0.000000  -0.000000
     83      -0.000000   0.000000  -0.000000  -0.000000   0.000000  -0.000000
     84       0.000000   0.000000   0.000000   0.000000   0.000000   0.000000
     85       0.000000  -0.000000   0.000000  -0.000000   0.000000   0.000000
     86      -0.000000   0.000000   0.000000   0.000000   0.000000  -0.000000
     87       0.000000   0.000000   0.000000   0.000000   0.000000   0.000000
     88       0.000000   0.000000   0.000000   0.000000   0.000000   0.000000
     89       0.000000  -0.000000   0.000000  -0.000000   0.000000   0.000000
     90       0.000000  -0.000000   0.000000   0.000000   0.000000  -0.000000
     91      -0.000000   0.000000   0.000000   0.000000  -0.000000  -0.000000
     92       0.000000   0.000000   0.000000   0.000000   0.000000   0.000000
     93       0.000000   0.000000   0.000000   0.000000   0.000000   0.000000
     94       0.000000  -0.000000   0.000000   0.000000   0.000000  -0.000000
     95       0.000000  -0.000000   0.000000   0.000000   0.000000   0.000000
     96       0.000000   0.000000   0.000000   0.000000   0.000000   0.000000
     97       0.000000   0.000000   0.000000   0.000000   0.000000   0.000000
     98       0.000000  -0.000000  -0.000000  -0.000000  -0.000000  -0.000000
     99       0.000000   0.000000   0.000000   0.000000   0.000000   0.000000
    100       0.000000  -0.000000   0.000000   0.000000   0.000000  -0.000000
    101       0.000000   0.000000   0.000000   0.000000   0.000000   0.000000
    102       0.000000   0.000000   0.000000   0.000000   0.000000   0.000000
    103       0.000000  -0.000000   0.000000   0.000000  -0.000000   0.000000
    104      -0.000000   0.000000   0.000000   0.000000   0.000000   0.000000
    105       0.000000   0.000000   0.000000   0.000000   0.000000   0.000000
    106       0.000000   0.000000   0.000000   0.000000   0.000000   0.000000
    107      -0.000000   0.000000  -0.000000  -0.000000  -0.000000   0.000000
    108       0.000000  -0.000000   0.000000   0.000000   0.000000   0.000000
                  6          7          8          9         10         11    
      0       0.903487   0.682795   0.068047   0.000000  -0.000000   0.000000
      1      -0.839757  -0.593511  -0.081226   0.000000   0.000000  -0.000000
      2       0.228431   0.111908   0.301325   0.000000   0.000000  -0.000000
      3       0.117656   0.056454   0.537575   0.000000   0.000000   0.000000
      4       0.058003   0.027594   0.839181   0.000000  -0.000000  -0.000000
      5       0.835793   0.523077   0.058511   0.000000   0.000000  -0.000000
      6       1.000000   0.835801   0.027837   0.000000  -0.000000   0.000000
      7       0.835801   1.000000   0.013199   0.000000  -0.000000   0.000000
      8       0.027837   0.013199   1.000000   0.000000   0.000000  -0.000000
      9       0.000000   0.000000   0.000000   1.000000   0.000000   0.000000
     10      -0.000000  -0.000000   0.000000   0.000000   1.000000   0.000000
     11       0.000000   0.000000  -0.000000   0.000000   0.000000   1.000000
     12       0.000000   0.000000   0.000000   0.653299   0.000000   0.000000
     13       0.000000   0.000000   0.000000   0.000000   0.653299   0.000000
     14       0.000000   0.000000   0.000000   0.000000   0.000000   0.653299
     15       0.000000   0.000000   0.000000   0.274917   0.000000   0.000000
     16       0.000000   0.000000   0.000000   0.000000   0.274917  -0.000000
     17      -0.000000   0.000000   0.000000   0.000000  -0.000000   0.274917
     18       0.000000   0.000000   0.000000   0.087755   0.000000   0.000000
     19       0.000000   0.000000   0.000000   0.000000   0.087755   0.000000
     20       0.000000  -0.000000   0.000000   0.000000   0.000000   0.087755
     21       0.000000   0.000000   0.000000   0.764268   0.000000   0.000000
     22       0.000000   0.000000   0.000000   0.000000   0.764268   0.000000
     23      -0.000000  -0.000000   0.000000   0.000000   0.000000   0.764268
     24       0.000000   0.000000   0.000000   0.383290   0.000000   0.000000
     25       0.000000   0.000000   0.000000   0.000000   0.383290   0.000000
     26       0.000000   0.000000   0.000000   0.000000   0.000000   0.383290
     27       0.000000   0.000000   0.000000   0.147952   0.000000   0.000000
     28       0.000000   0.000000   0.000000   0.000000   0.147952   0.000000
     29       0.000000  -0.000000   0.000000   0.000000   0.000000   0.147952
     30       0.000000   0.000000   0.000000   0.022559   0.000000   0.000000
     31       0.000000  -0.000000   0.000000   0.000000   0.022559  -0.000000
     32       0.000000   0.000000   0.000000   0.000000  -0.000000   0.022559
     33       0.000000  -0.000000  -0.000000   0.000000   0.000000   0.000000
     34       0.000000   0.000000   0.000000   0.000000   0.000000   0.000000
     35       0.000000   0.000000   0.000000   0.000000   0.000000   0.000000
     36      -0.000000  -0.000000  -0.000000   0.000000   0.000000   0.000000
     37      -0.000000   0.000000  -0.000000   0.000000   0.000000   0.000000
     38      -0.000000   0.000000   0.000000   0.000000  -0.000000   0.000000
     39       0.000000   0.000000   0.000000   0.000000   0.000000   0.000000
     40       0.000000   0.000000   0.000000  -0.000000   0.000000   0.000000
     41      -0.000000  -0.000000  -0.000000   0.000000   0.000000   0.000000
     42       0.000000   0.000000   0.000000   0.000000  -0.000000   0.000000
     43       0.000000  -0.000000   0.000000   0.000000  -0.000000   0.000000
     44       0.000000   0.000000   0.000000   0.000000   0.000000   0.000000
     45       0.000000   0.000000   0.000000  -0.000000   0.000000   0.000000
     46      -0.000000  -0.000000  -0.000000   0.000000   0.000000   0.000000
     47       0.000000   0.000000   0.000000   0.000000  -0.000000   0.000000
     48      -0.000000  -0.000000   0.000000   0.000000   0.000000  -0.000000
     49       0.000000   0.000000   0.000000  -0.000000   0.000000   0.000000
     50       0.000000   0.000000   0.000000   0.000000   0.000000   0.000000
     51      -0.000000  -0.000000  -0.000000   0.000000  -0.000000  -0.000000
     52      -0.000000   0.000000   0.000000   0.000000   0.000000  -0.000000
     53       0.000000  -0.000000  -0.000000   0.000000   0.000000   0.000000
     54       0.000000   0.000000   0.000000  -0.000000   0.000000   0.000000
     55       0.000000   0.000000   0.000000  -0.000000   0.000000   0.000000
     56      -0.000000  -0.000000  -0.000000   0.000000  -0.000000   0.000000
     57       0.000000   0.000000   0.000000   0.000000  -0.000000  -0.000000
     58       0.000000  -0.000000   0.000000   0.000000   0.000000  -0.000000
     59       0.000000   0.000000   0.000000  -0.000000   0.000000   0.000000
     60       0.000000   0.000000   0.000000   0.000000   0.000000   0.000000
     61      -0.000000  -0.000000  -0.000000   0.000000  -0.000000  -0.000000
     62       0.000000   0.000000   0.000000   0.000000   0.000000  -0.000000
     63       0.000000   0.000000   0.000000   0.000000   0.000000   0.000000
     64       0.000000   0.000000   0.000000   0.000000  -0.000000   0.000000
     65      -0.000000   0.000000  -0.000000   0.000000   0.000000  -0.000000
     66       0.000000   0.000000   0.000000  -0.000000   0.000000   0.000000
     67       0.000000   0.000000   0.000000  -0.000000   0.000000   0.000000
     68       0.000000   0.000000   0.000000   0.000000  -0.000000  -0.000000
     69       0.000000   0.000000   0.000000   0.000000   0.000000   0.000000
     70       0.000000   0.000000   0.000000  -0.000000   0.000000   0.000000
     71       0.000000   0.000000   0.000000   0.000000   0.000000   0.000000
     72       0.000000   0.000000   0.000000   0.000000   0.000000   0.000000
     73       0.000000   0.000000   0.000000  -0.000000   0.000000   0.000000
     74       0.000000   0.000000   0.000000   0.000000   0.000000   0.000000
     75       0.000000   0.000000   0.000000   0.000000   0.000000   0.000000
     76       0.000000   0.000000   0.000000   0.000000   0.000000  -0.000000
     77       0.000000   0.000000   0.000000  -0.000000   0.000000   0.000000
     78       0.000000   0.000000   0.000000   0.000000  -0.000000   0.000000
     79       0.000000  -0.000000  -0.000000   0.000000   0.000000  -0.000000
     80       0.000000   0.000000   0.000000  -0.000000   0.000000   0.000000
     81       0.000000   0.000000   0.000000  -0.000000   0.000000   0.000000
     82       0.000000   0.000000   0.000000   0.000000  -0.000000  -0.000000
     83       0.000000   0.000000   0.000000   0.000000   0.000000   0.000000
     84       0.000000   0.000000   0.000000   0.000000   0.000000   0.000000
     85       0.000000   0.000000   0.000000   0.000000  -0.000000   0.000000
     86       0.000000   0.000000   0.000000   0.000000   0.000000  -0.000000
     87       0.000000   0.000000   0.000000  -0.000000   0.000000   0.000000
     88       0.000000   0.000000   0.000000  -0.000000   0.000000   0.000000
     89       0.000000   0.000000   0.000000   0.000000  -0.000000  -0.000000
     90       0.000000   0.000000  -0.000000   0.000000   0.000000   0.000000
     91       0.000000   0.000000  -0.000000   0.000000  -0.000000   0.000000
     92       0.000000   0.000000   0.000000  -0.000000   0.000000   0.000000
     93       0.000000   0.000000   0.000000   0.000000   0.000000   0.000000
     94       0.000000  -0.000000   0.000000   0.000000  -0.000000   0.000000
     95       0.000000   0.000000   0.000000   0.000000   0.000000   0.000000
     96       0.000000   0.000000   0.000000   0.000000   0.000000   0.000000
     97       0.000000   0.000000   0.000000   0.000000   0.000000   0.000000
     98      -0.000000  -0.000000   0.000000   0.000000  -0.000000   0.000000
     99       0.000000   0.000000   0.000000   0.000000   0.000000   0.000000
    100      -0.000000   0.000000  -0.000000   0.000000   0.000000  -0.000000
    101       0.000000   0.000000   0.000000   0.000000   0.000000   0.000000
    102       0.000000   0.000000   0.000000   0.000000   0.000000   0.000000
    103       0.000000   0.000000  -0.000000   0.000000  -0.000000  -0.000000
    104       0.000000   0.000000   0.000000   0.000000  -0.000000  -0.000000
    105       0.000000   0.000000   0.000000   0.000000   0.000000   0.000000
    106       0.000000   0.000000   0.000000   0.000000   0.000000   0.000000
    107       0.000000  -0.000000   0.000000   0.000000  -0.000000   0.000000
    108       0.000000   0.000000   0.000000   0.000000   0.000000   0.000000
                 12         13         14         15         16         17    
      0       0.000000  -0.000000   0.000000   0.000000  -0.000000   0.000000
      1       0.000000   0.000000  -0.000000   0.000000   0.000000   0.000000
      2       0.000000   0.000000   0.000000   0.000000   0.000000   0.000000
      3       0.000000   0.000000   0.000000   0.000000  -0.000000   0.000000
      4       0.000000   0.000000   0.000000   0.000000  -0.000000   0.000000
      5       0.000000  -0.000000   0.000000   0.000000  -0.000000   0.000000
      6       0.000000   0.000000   0.000000   0.000000   0.000000  -0.000000
      7       0.000000   0.000000   0.000000   0.000000   0.000000   0.000000
      8       0.000000   0.000000   0.000000   0.000000   0.000000   0.000000
      9       0.653299   0.000000   0.000000   0.274917   0.000000   0.000000
     10       0.000000   0.653299   0.000000   0.000000   0.274917  -0.000000
     11       0.000000   0.000000   0.653299   0.000000  -0.000000   0.274917
     12       1.000000   0.000000   0.000000   0.725760   0.000000   0.000000
     13       0.000000   1.000000   0.000000   0.000000   0.725760   0.000000
     14       0.000000   0.000000   1.000000   0.000000   0.000000   0.725760
     15       0.725760   0.000000   0.000000   1.000000   0.000000   0.000000
     16       0.000000   0.725760   0.000000   0.000000   1.000000   0.000000
     17       0.000000   0.000000   0.725760   0.000000   0.000000   1.000000
     18       0.310357   0.000000   0.000000   0.717229   0.000000   0.000000
     19       0.000000   0.310357   0.000000   0.000000   0.717229   0.000000
     20       0.000000   0.000000   0.310357   0.000000   0.000000   0.717229
     21       0.249097   0.000000   0.000000   0.079421   0.000000   0.000000
     22       0.000000   0.249097   0.000000   0.000000   0.079421   0.000000
     23       0.000000   0.000000   0.249097   0.000000   0.000000   0.079421
     24       0.074983   0.000000   0.000000   0.021694   0.000000   0.000000
     25       0.000000   0.074983   0.000000   0.000000   0.021694   0.000000
     26       0.000000   0.000000   0.074983   0.000000   0.000000   0.021694
     27       0.020427   0.000000   0.000000   0.005708   0.000000   0.000000
     28       0.000000   0.020427   0.000000   0.000000   0.005708   0.000000
     29       0.000000   0.000000   0.020427   0.000000   0.000000   0.005708
     30       0.090610   0.000000   0.000000   0.279453   0.000000   0.000000
     31       0.000000   0.090610  -0.000000   0.000000   0.279453  -0.000000
     32       0.000000  -0.000000   0.090610   0.000000  -0.000000   0.279453
     33       0.000000   0.000000  -0.000000   0.000000   0.000000   0.000000
     34       0.000000   0.000000   0.000000   0.000000   0.000000   0.000000
     35       0.000000   0.000000   0.000000   0.000000   0.000000   0.000000
     36       0.000000   0.000000  -0.000000   0.000000   0.000000   0.000000
     37       0.000000   0.000000   0.000000   0.000000   0.000000   0.000000
     38       0.000000   0.000000   0.000000   0.000000  -0.000000   0.000000
     39       0.000000   0.000000   0.000000   0.000000   0.000000   0.000000
     40       0.000000   0.000000   0.000000   0.000000   0.000000   0.000000
     41       0.000000   0.000000   0.000000   0.000000   0.000000   0.000000
     42       0.000000   0.000000   0.000000   0.000000   0.000000   0.000000
     43       0.000000  -0.000000   0.000000   0.000000   0.000000   0.000000
     44       0.000000   0.000000   0.000000   0.000000   0.000000   0.000000
     45       0.000000   0.000000   0.000000   0.000000   0.000000   0.000000
     46       0.000000   0.000000   0.000000   0.000000   0.000000   0.000000
     47       0.000000   0.000000   0.000000   0.000000   0.000000   0.000000
     48       0.000000   0.000000   0.000000   0.000000   0.000000   0.000000
     49       0.000000   0.000000   0.000000  -0.000000   0.000000   0.000000
     50      -0.000000   0.000000   0.000000   0.000000   0.000000   0.000000
     51       0.000000   0.000000   0.000000   0.000000  -0.000000   0.000000
     52       0.000000  -0.000000   0.000000   0.000000   0.000000  -0.000000
     53       0.000000   0.000000   0.000000   0.000000   0.000000   0.000000
     54       0.000000   0.000000   0.000000   0.000000   0.000000   0.000000
     55       0.000000   0.000000   0.000000   0.000000   0.000000   0.000000
     56       0.000000   0.000000   0.000000   0.000000   0.000000   0.000000
     57       0.000000   0.000000   0.000000   0.000000   0.000000   0.000000
     58       0.000000   0.000000  -0.000000   0.000000  -0.000000   0.000000
     59      -0.000000   0.000000   0.000000   0.000000   0.000000   0.000000
     60       0.000000   0.000000   0.000000  -0.000000   0.000000   0.000000
     61       0.000000  -0.000000  -0.000000   0.000000   0.000000   0.000000
     62       0.000000   0.000000  -0.000000   0.000000  -0.000000   0.000000
     63       0.000000   0.000000   0.000000  -0.000000   0.000000   0.000000
     64       0.000000   0.000000   0.000000   0.000000   0.000000   0.000000
     65       0.000000   0.000000  -0.000000   0.000000   0.000000   0.000000
     66      -0.000000   0.000000   0.000000  -0.000000   0.000000   0.000000
     67       0.000000   0.000000   0.000000   0.000000   0.000000   0.000000
     68       0.000000   0.000000   0.000000   0.000000  -0.000000   0.000000
     69       0.000000   0.000000   0.000000   0.000000   0.000000   0.000000
     70      -0.000000   0.000000   0.000000  -0.000000   0.000000   0.000000
     71       0.000000   0.000000   0.000000   0.000000  -0.000000   0.000000
     72       0.000000   0.000000   0.000000   0.000000   0.000000  -0.000000
     73      -0.000000   0.000000   0.000000  -0.000000   0.000000   0.000000
     74      -0.000000   0.000000   0.000000   0.000000   0.000000   0.000000
     75       0.000000  -0.000000  -0.000000   0.000000  -0.000000   0.000000
     76       0.000000   0.000000   0.000000   0.000000   0.000000   0.000000
     77      -0.000000   0.000000   0.000000  -0.000000   0.000000   0.000000
     78       0.000000   0.000000   0.000000   0.000000   0.000000   0.000000
     79       0.000000   0.000000   0.000000   0.000000   0.000000  -0.000000
     80      -0.000000   0.000000   0.000000  -0.000000   0.000000   0.000000
     81       0.000000   0.000000   0.000000   0.000000   0.000000   0.000000
     82       0.000000  -0.000000   0.000000   0.000000   0.000000   0.000000
     83       0.000000   0.000000  -0.000000   0.000000   0.000000   0.000000
     84      -0.000000   0.000000   0.000000  -0.000000   0.000000   0.000000
     85       0.000000  -0.000000   0.000000   0.000000  -0.000000   0.000000
     86       0.000000   0.000000   0.000000   0.000000   0.000000  -0.000000
     87      -0.000000   0.000000   0.000000  -0.000000   0.000000   0.000000
     88       0.000000   0.000000   0.000000   0.000000   0.000000   0.000000
     89       0.000000  -0.000000   0.000000   0.000000  -0.000000   0.000000
     90       0.000000   0.000000  -0.000000   0.000000   0.000000   0.000000
     91       0.000000   0.000000   0.000000   0.000000   0.000000  -0.000000
     92       0.000000   0.000000   0.000000   0.000000   0.000000   0.000000
     93       0.000000   0.000000   0.000000  -0.000000   0.000000   0.000000
     94       0.000000   0.000000   0.000000   0.000000   0.000000   0.000000
     95       0.000000   0.000000   0.000000   0.000000   0.000000  -0.000000
     96       0.000000   0.000000   0.000000  -0.000000   0.000000   0.000000
     97       0.000000   0.000000   0.000000  -0.000000   0.000000   0.000000
     98       0.000000   0.000000   0.000000   0.000000  -0.000000   0.000000
     99       0.000000   0.000000   0.000000   0.000000   0.000000   0.000000
    100       0.000000   0.000000   0.000000   0.000000   0.000000   0.000000
    101       0.000000   0.000000   0.000000   0.000000   0.000000   0.000000
    102       0.000000   0.000000   0.000000   0.000000   0.000000   0.000000
    103       0.000000   0.000000   0.000000   0.000000   0.000000   0.000000
    104       0.000000  -0.000000   0.000000   0.000000  -0.000000   0.000000
    105       0.000000   0.000000   0.000000   0.000000   0.000000   0.000000
    106       0.000000   0.000000   0.000000  -0.000000   0.000000   0.000000
    107       0.000000   0.000000  -0.000000   0.000000   0.000000  -0.000000
    108       0.000000   0.000000   0.000000   0.000000   0.000000   0.000000
                 18         19         20         21         22         23    
      0       0.000000  -0.000000   0.000000   0.000000   0.000000  -0.000000
      1       0.000000   0.000000  -0.000000   0.000000  -0.000000   0.000000
      2       0.000000   0.000000  -0.000000   0.000000   0.000000   0.000000
      3       0.000000   0.000000  -0.000000   0.000000   0.000000  -0.000000
      4       0.000000  -0.000000   0.000000   0.000000   0.000000  -0.000000
      5       0.000000   0.000000   0.000000   0.000000   0.000000   0.000000
      6       0.000000   0.000000   0.000000   0.000000   0.000000  -0.000000
      7       0.000000   0.000000  -0.000000   0.000000   0.000000  -0.000000
      8       0.000000   0.000000   0.000000   0.000000   0.000000   0.000000
      9       0.087755   0.000000   0.000000   0.764268   0.000000   0.000000
     10       0.000000   0.087755   0.000000   0.000000   0.764268   0.000000
     11       0.000000   0.000000   0.087755   0.000000   0.000000   0.764268
     12       0.310357   0.000000   0.000000   0.249097   0.000000   0.000000
     13       0.000000   0.310357   0.000000   0.000000   0.249097   0.000000
     14       0.000000   0.000000   0.310357   0.000000   0.000000   0.249097
     15       0.717229   0.000000   0.000000   0.079421   0.000000   0.000000
     16       0.000000   0.717229   0.000000   0.000000   0.079421   0.000000
     17       0.000000   0.000000   0.717229   0.000000   0.000000   0.079421
     18       1.000000   0.000000   0.000000   0.022491   0.000000   0.000000
     19       0.000000   1.000000   0.000000   0.000000   0.022491   0.000000
     20       0.000000   0.000000   1.000000   0.000000   0.000000   0.022491
     21       0.022491   0.000000   0.000000   1.000000   0.000000   0.000000
     22       0.000000   0.022491   0.000000   0.000000   1.000000   0.000000
     23       0.000000   0.000000   0.022491   0.000000   0.000000   1.000000
     24       0.005921   0.000000   0.000000   0.704393   0.000000   0.000000
     25       0.000000   0.005921   0.000000   0.000000   0.704393   0.000000
     26       0.000000   0.000000   0.005921   0.000000   0.000000   0.704393
     27       0.001538   0.000000   0.000000   0.287189   0.000000   0.000000
     28       0.000000   0.001538   0.000000   0.000000   0.287189   0.000000
     29       0.000000   0.000000   0.001538   0.000000   0.000000   0.287189
     30       0.679509   0.000000   0.000000   0.005517   0.000000   0.000000
     31       0.000000   0.679509   0.000000   0.000000   0.005517   0.000000
     32       0.000000   0.000000   0.679509   0.000000   0.000000   0.005517
     33       0.000000   0.000000  -0.000000   0.000000   0.000000   0.000000
     34       0.000000   0.000000   0.000000   0.000000   0.000000   0.000000
     35       0.000000   0.000000   0.000000  -0.000000   0.000000   0.000000
     36       0.000000   0.000000  -0.000000   0.000000   0.000000   0.000000
     37       0.000000   0.000000   0.000000   0.000000  -0.000000   0.000000
     38       0.000000  -0.000000   0.000000   0.000000   0.000000   0.000000
     39       0.000000   0.000000   0.000000   0.000000   0.000000   0.000000
     40      -0.000000   0.000000   0.000000   0.000000   0.000000   0.000000
     41       0.000000   0.000000   0.000000   0.000000   0.000000   0.000000
     42       0.000000  -0.000000   0.000000   0.000000   0.000000   0.000000
     43       0.000000   0.000000   0.000000   0.000000   0.000000  -0.000000
     44       0.000000   0.000000   0.000000   0.000000   0.000000   0.000000
     45       0.000000   0.000000   0.000000   0.000000   0.000000   0.000000
     46       0.000000   0.000000   0.000000   0.000000   0.000000  -0.000000
     47       0.000000   0.000000   0.000000   0.000000   0.000000   0.000000
     48       0.000000   0.000000   0.000000   0.000000   0.000000   0.000000
     49      -0.000000   0.000000   0.000000   0.000000   0.000000   0.000000
     50       0.000000   0.000000   0.000000   0.000000   0.000000   0.000000
     51       0.000000  -0.000000   0.000000   0.000000   0.000000   0.000000
     52       0.000000   0.000000  -0.000000   0.000000   0.000000   0.000000
     53       0.000000   0.000000   0.000000   0.000000   0.000000   0.000000
     54       0.000000   0.000000   0.000000  -0.000000   0.000000   0.000000
     55      -0.000000   0.000000   0.000000   0.000000   0.000000   0.000000
     56       0.000000   0.000000   0.000000   0.000000  -0.000000   0.000000
     57       0.000000  -0.000000   0.000000   0.000000   0.000000  -0.000000
     58       0.000000   0.000000   0.000000   0.000000   0.000000   0.000000
     59       0.000000   0.000000   0.000000   0.000000   0.000000   0.000000
     60      -0.000000   0.000000   0.000000  -0.000000   0.000000   0.000000
     61       0.000000   0.000000   0.000000   0.000000   0.000000   0.000000
     62       0.000000  -0.000000   0.000000   0.000000  -0.000000   0.000000
     63      -0.000000   0.000000   0.000000  -0.000000   0.000000   0.000000
     64       0.000000   0.000000   0.000000   0.000000   0.000000   0.000000
     65       0.000000   0.000000   0.000000   0.000000   0.000000   0.000000
     66      -0.000000   0.000000   0.000000  -0.000000   0.000000   0.000000
     67       0.000000   0.000000   0.000000   0.000000   0.000000   0.000000
     68       0.000000   0.000000   0.000000   0.000000   0.000000   0.000000
     69       0.000000   0.000000  -0.000000   0.000000   0.000000  -0.000000
     70      -0.000000   0.000000   0.000000   0.000000   0.000000   0.000000
     71       0.000000   0.000000   0.000000   0.000000   0.000000   0.000000
     72       0.000000   0.000000   0.000000   0.000000   0.000000  -0.000000
     73      -0.000000   0.000000   0.000000  -0.000000   0.000000   0.000000
     74       0.000000   0.000000   0.000000  -0.000000   0.000000   0.000000
     75       0.000000   0.000000   0.000000   0.000000   0.000000  -0.000000
     76       0.000000   0.000000  -0.000000   0.000000   0.000000   0.000000
     77       0.000000   0.000000   0.000000  -0.000000   0.000000   0.000000
     78       0.000000  -0.000000   0.000000   0.000000   0.000000   0.000000
     79       0.000000   0.000000  -0.000000   0.000000   0.000000   0.000000
     80      -0.000000   0.000000   0.000000  -0.000000   0.000000   0.000000
     81       0.000000   0.000000   0.000000  -0.000000   0.000000   0.000000
     82       0.000000  -0.000000   0.000000   0.000000   0.000000  -0.000000
     83       0.000000   0.000000   0.000000   0.000000   0.000000  -0.000000
     84      -0.000000   0.000000   0.000000  -0.000000   0.000000   0.000000
     85       0.000000   0.000000   0.000000   0.000000   0.000000   0.000000
     86       0.000000   0.000000   0.000000   0.000000   0.000000   0.000000
     87      -0.000000   0.000000   0.000000  -0.000000   0.000000   0.000000
     88      -0.000000   0.000000   0.000000   0.000000   0.000000   0.000000
     89       0.000000   0.000000  -0.000000   0.000000   0.000000   0.000000
     90       0.000000   0.000000  -0.000000   0.000000   0.000000  -0.000000
     91       0.000000   0.000000   0.000000   0.000000   0.000000  -0.000000
     92       0.000000   0.000000   0.000000   0.000000   0.000000   0.000000
     93       0.000000   0.000000   0.000000  -0.000000   0.000000   0.000000
     94       0.000000   0.000000   0.000000   0.000000   0.000000  -0.000000
     95       0.000000   0.000000   0.000000   0.000000  -0.000000   0.000000
     96       0.000000   0.000000   0.000000   0.000000   0.000000   0.000000
     97       0.000000   0.000000   0.000000   0.000000   0.000000   0.000000
     98       0.000000   0.000000   0.000000   0.000000   0.000000   0.000000
     99       0.000000   0.000000   0.000000   0.000000   0.000000   0.000000
    100       0.000000   0.000000   0.000000   0.000000   0.000000   0.000000
    101      -0.000000   0.000000   0.000000   0.000000   0.000000   0.000000
    102       0.000000   0.000000   0.000000   0.000000   0.000000   0.000000
    103       0.000000  -0.000000   0.000000   0.000000   0.000000   0.000000
    104       0.000000   0.000000   0.000000   0.000000   0.000000   0.000000
    105       0.000000   0.000000   0.000000   0.000000   0.000000   0.000000
    106       0.000000   0.000000   0.000000   0.000000   0.000000   0.000000
    107       0.000000  -0.000000   0.000000   0.000000   0.000000   0.000000
    108       0.000000   0.000000   0.000000   0.000000   0.000000   0.000000
                 24         25         26         27         28         29    
      0       0.000000   0.000000   0.000000   0.000000  -0.000000   0.000000
      1       0.000000  -0.000000  -0.000000   0.000000   0.000000  -0.000000
      2       0.000000   0.000000  -0.000000   0.000000   0.000000   0.000000
      3       0.000000   0.000000  -0.000000   0.000000  -0.000000   0.000000
      4       0.000000   0.000000   0.000000   0.000000   0.000000   0.000000
      5       0.000000   0.000000   0.000000   0.000000   0.000000   0.000000
      6       0.000000   0.000000   0.000000   0.000000   0.000000   0.000000
      7       0.000000   0.000000   0.000000   0.000000   0.000000  -0.000000
      8       0.000000   0.000000   0.000000   0.000000   0.000000   0.000000
      9       0.383290   0.000000   0.000000   0.147952   0.000000   0.000000
     10       0.000000   0.383290   0.000000   0.000000   0.147952   0.000000
     11       0.000000   0.000000   0.383290   0.000000   0.000000   0.147952
     12       0.074983   0.000000   0.000000   0.020427   0.000000   0.000000
     13       0.000000   0.074983   0.000000   0.000000   0.020427   0.000000
     14       0.000000   0.000000   0.074983   0.000000   0.000000   0.020427
     15       0.021694   0.000000   0.000000   0.005708   0.000000   0.000000
     16       0.000000   0.021694   0.000000   0.000000   0.005708   0.000000
     17       0.000000   0.000000   0.021694   0.000000   0.000000   0.005708
     18       0.005921   0.000000   0.000000   0.001538   0.000000   0.000000
     19       0.000000   0.005921   0.000000   0.000000   0.001538   0.000000
     20       0.000000   0.000000   0.005921   0.000000   0.000000   0.001538
     21       0.704393   0.000000   0.000000   0.287189   0.000000   0.000000
     22       0.000000   0.704393   0.000000   0.000000   0.287189   0.000000
     23       0.000000   0.000000   0.704393   0.000000   0.000000   0.287189
     24       1.000000   0.000000   0.000000   0.704392   0.000000   0.000000
     25       0.000000   1.000000   0.000000   0.000000   0.704392   0.000000
     26       0.000000   0.000000   1.000000   0.000000   0.000000   0.704392
     27       0.704392   0.000000   0.000000   1.000000   0.000000   0.000000
     28       0.000000   0.704392   0.000000   0.000000   1.000000   0.000000
     29       0.000000   0.000000   0.704392   0.000000   0.000000   1.000000
     30       0.001433   0.000000   0.000000   0.000370   0.000000   0.000000
     31       0.000000   0.001433   0.000000   0.000000   0.000370   0.000000
     32       0.000000   0.000000   0.001433   0.000000   0.000000   0.000370
     33       0.000000   0.000000  -0.000000   0.000000   0.000000   0.000000
     34      -0.000000   0.000000   0.000000   0.000000   0.000000   0.000000
     35       0.000000   0.000000   0.000000   0.000000   0.000000   0.000000
     36       0.000000  -0.000000  -0.000000   0.000000   0.000000   0.000000
     37       0.000000   0.000000  -0.000000   0.000000   0.000000   0.000000
     38       0.000000   0.000000   0.000000   0.000000   0.000000   0.000000
     39       0.000000   0.000000   0.000000   0.000000   0.000000   0.000000
     40       0.000000   0.000000   0.000000   0.000000   0.000000   0.000000
     41       0.000000   0.000000   0.000000   0.000000   0.000000   0.000000
     42       0.000000   0.000000   0.000000   0.000000   0.000000   0.000000
     43       0.000000  -0.000000   0.000000   0.000000   0.000000  -0.000000
     44       0.000000   0.000000   0.000000   0.000000   0.000000   0.000000
     45       0.000000   0.000000   0.000000   0.000000   0.000000   0.000000
     46       0.000000   0.000000   0.000000   0.000000   0.000000  -0.000000
     47       0.000000   0.000000   0.000000   0.000000   0.000000   0.000000
     48       0.000000   0.000000  -0.000000   0.000000  -0.000000   0.000000
     49       0.000000   0.000000   0.000000   0.000000   0.000000   0.000000
     50       0.000000   0.000000   0.000000   0.000000   0.000000   0.000000
     51       0.000000   0.000000  -0.000000   0.000000   0.000000   0.000000
     52       0.000000   0.000000   0.000000   0.000000   0.000000   0.000000
     53       0.000000   0.000000   0.000000   0.000000   0.000000  -0.000000
     54       0.000000   0.000000   0.000000  -0.000000   0.000000   0.000000
     55      -0.000000   0.000000   0.000000   0.000000   0.000000   0.000000
     56       0.000000   0.000000   0.000000   0.000000  -0.000000  -0.000000
     57       0.000000  -0.000000   0.000000   0.000000   0.000000  -0.000000
     58       0.000000   0.000000   0.000000   0.000000   0.000000  -0.000000
     59       0.000000   0.000000   0.000000   0.000000   0.000000   0.000000
     60       0.000000   0.000000   0.000000   0.000000   0.000000   0.000000
     61       0.000000   0.000000   0.000000   0.000000   0.000000  -0.000000
     62       0.000000   0.000000   0.000000   0.000000   0.000000   0.000000
     63      -0.000000   0.000000   0.000000  -0.000000   0.000000   0.000000
     64       0.000000  -0.000000   0.000000   0.000000   0.000000   0.000000
     65       0.000000   0.000000   0.000000   0.000000   0.000000   0.000000
     66      -0.000000   0.000000   0.000000  -0.000000   0.000000   0.000000
     67       0.000000   0.000000   0.000000   0.000000   0.000000   0.000000
     68       0.000000  -0.000000   0.000000   0.000000   0.000000   0.000000
     69       0.000000   0.000000  -0.000000   0.000000   0.000000  -0.000000
     70      -0.000000   0.000000   0.000000  -0.000000   0.000000   0.000000
     71       0.000000   0.000000   0.000000   0.000000  -0.000000   0.000000
     72       0.000000   0.000000   0.000000   0.000000   0.000000  -0.000000
     73      -0.000000   0.000000   0.000000  -0.000000   0.000000   0.000000
     74      -0.000000   0.000000   0.000000   0.000000   0.000000   0.000000
     75       0.000000   0.000000  -0.000000   0.000000  -0.000000   0.000000
     76       0.000000   0.000000  -0.000000   0.000000   0.000000   0.000000
     77      -0.000000   0.000000   0.000000  -0.000000   0.000000   0.000000
     78       0.000000  -0.000000   0.000000   0.000000   0.000000   0.000000
     79       0.000000   0.000000   0.000000   0.000000   0.000000   0.000000
     80      -0.000000   0.000000   0.000000  -0.000000   0.000000   0.000000
     81       0.000000   0.000000   0.000000   0.000000   0.000000   0.000000
     82       0.000000  -0.000000   0.000000   0.000000   0.000000   0.000000
     83       0.000000   0.000000  -0.000000   0.000000   0.000000  -0.000000
     84       0.000000   0.000000   0.000000   0.000000   0.000000   0.000000
     85       0.000000  -0.000000   0.000000   0.000000  -0.000000   0.000000
     86       0.000000   0.000000  -0.000000   0.000000   0.000000  -0.000000
     87      -0.000000   0.000000   0.000000  -0.000000   0.000000   0.000000
     88       0.000000   0.000000   0.000000  -0.000000   0.000000   0.000000
     89       0.000000  -0.000000   0.000000   0.000000  -0.000000  -0.000000
     90       0.000000   0.000000   0.000000   0.000000   0.000000   0.000000
     91       0.000000   0.000000   0.000000   0.000000   0.000000  -0.000000
     92       0.000000   0.000000   0.000000   0.000000   0.000000   0.000000
     93       0.000000   0.000000   0.000000  -0.000000   0.000000   0.000000
     94       0.000000   0.000000   0.000000   0.000000   0.000000   0.000000
     95       0.000000   0.000000   0.000000   0.000000   0.000000  -0.000000
     96       0.000000   0.000000   0.000000   0.000000   0.000000   0.000000
     97       0.000000   0.000000   0.000000   0.000000   0.000000   0.000000
     98       0.000000   0.000000   0.000000   0.000000   0.000000  -0.000000
     99       0.000000   0.000000   0.000000   0.000000  -0.000000   0.000000
    100       0.000000   0.000000  -0.000000   0.000000   0.000000   0.000000
    101       0.000000   0.000000   0.000000  -0.000000   0.000000   0.000000
    102      -0.000000   0.000000   0.000000   0.000000   0.000000   0.000000
    103       0.000000   0.000000   0.000000   0.000000  -0.000000  -0.000000
    104       0.000000   0.000000   0.000000   0.000000  -0.000000   0.000000
    105       0.000000   0.000000   0.000000   0.000000   0.000000   0.000000
    106      -0.000000   0.000000   0.000000   0.000000   0.000000   0.000000
    107       0.000000   0.000000  -0.000000   0.000000  -0.000000   0.000000
    108       0.000000   0.000000   0.000000   0.000000  -0.000000   0.000000
                 30         31         32         33         34         35    
      0       0.000000  -0.000000  -0.000000  -0.000000   0.000000   0.000000
      1       0.000000   0.000000   0.000000   0.000000   0.000000   0.000000
      2       0.000000   0.000000   0.000000   0.000000   0.000000   0.000000
      3       0.000000  -0.000000   0.000000   0.000000   0.000000   0.000000
      4       0.000000   0.000000  -0.000000   0.000000   0.000000   0.000000
      5       0.000000   0.000000  -0.000000   0.000000   0.000000   0.000000
      6       0.000000   0.000000   0.000000   0.000000   0.000000   0.000000
      7       0.000000  -0.000000   0.000000  -0.000000   0.000000   0.000000
      8       0.000000   0.000000   0.000000  -0.000000   0.000000   0.000000
      9       0.022559   0.000000   0.000000   0.000000   0.000000   0.000000
     10       0.000000   0.022559  -0.000000   0.000000   0.000000   0.000000
     11       0.000000  -0.000000   0.022559   0.000000   0.000000   0.000000
     12       0.090610   0.000000   0.000000   0.000000   0.000000   0.000000
     13       0.000000   0.090610  -0.000000   0.000000   0.000000   0.000000
     14       0.000000  -0.000000   0.090610  -0.000000   0.000000   0.000000
     15       0.279453   0.000000   0.000000   0.000000   0.000000   0.000000
     16       0.000000   0.279453  -0.000000   0.000000   0.000000   0.000000
     17       0.000000  -0.000000   0.279453   0.000000   0.000000   0.000000
     18       0.679509   0.000000   0.000000   0.000000   0.000000   0.000000
     19       0.000000   0.679509   0.000000   0.000000   0.000000   0.000000
     20       0.000000   0.000000   0.679509  -0.000000   0.000000   0.000000
     21       0.005517   0.000000   0.000000   0.000000   0.000000  -0.000000
     22       0.000000   0.005517   0.000000   0.000000   0.000000   0.000000
     23       0.000000   0.000000   0.005517   0.000000   0.000000   0.000000
     24       0.001433   0.000000   0.000000   0.000000  -0.000000   0.000000
     25       0.000000   0.001433   0.000000   0.000000   0.000000   0.000000
     26       0.000000   0.000000   0.001433  -0.000000   0.000000   0.000000
     27       0.000370   0.000000   0.000000   0.000000   0.000000   0.000000
     28       0.000000   0.000370   0.000000   0.000000   0.000000   0.000000
     29       0.000000   0.000000   0.000370   0.000000   0.000000   0.000000
     30       1.000000   0.000000   0.000000   0.000000   0.000000   0.000000
     31       0.000000   1.000000   0.000000   0.000000   0.000000   0.000000
     32       0.000000   0.000000   1.000000   0.000000   0.000000   0.000000
     33       0.000000   0.000000   0.000000   1.000000   0.000000   0.000000
     34       0.000000   0.000000   0.000000   0.000000   1.000000   0.000000
     35       0.000000   0.000000   0.000000   0.000000   0.000000   1.000000
     36       0.000000   0.000000   0.000000   0.000000   0.000000   0.000000
     37       0.000000   0.000000   0.000000   0.000000   0.000000   0.000000
     38       0.000000   0.000000   0.000000   0.632116   0.000000   0.000000
     39       0.000000   0.000000   0.000000   0.000000   0.632116   0.000000
     40      -0.000000   0.000000   0.000000   0.000000   0.000000   0.632116
     41       0.000000   0.000000   0.000000  -0.000000   0.000000   0.000000
     42       0.000000  -0.000000   0.000000   0.000000   0.000000   0.000000
     43       0.000000  -0.000000   0.000000   0.193385   0.000000   0.000000
     44       0.000000   0.000000   0.000000   0.000000   0.193385   0.000000
     45      -0.000000   0.000000   0.000000   0.000000   0.000000   0.193385
     46       0.000000   0.000000   0.000000   0.000000   0.000000   0.000000
     47       0.000000  -0.000000   0.000000   0.000000   0.000000   0.000000
     48       0.000000   0.000000   0.000000   0.385387   0.000000   0.000000
     49      -0.000000   0.000000   0.000000   0.000000   0.385387   0.000000
     50       0.000000   0.000000   0.000000   0.000000   0.000000   0.385387
     51       0.000000  -0.000000   0.000000   0.000000   0.000000   0.000000
     52       0.000000   0.000000  -0.000000   0.000000   0.000000   0.000000
     53       0.000000   0.000000  -0.000000   0.059667   0.000000   0.000000
     54      -0.000000   0.000000   0.000000   0.000000   0.059667   0.000000
     55       0.000000   0.000000   0.000000   0.000000   0.000000   0.059667
     56       0.000000  -0.000000  -0.000000   0.000000   0.000000   0.000000
     57       0.000000   0.000000  -0.000000   0.000000   0.000000   0.000000
     58       0.000000   0.000000   0.000000   0.037372   0.000000   0.000000
     59       0.000000   0.000000   0.000000   0.000000   0.037372   0.000000
     60      -0.000000   0.000000   0.000000   0.000000   0.000000   0.037372
     61       0.000000   0.000000   0.000000   0.000000   0.000000   0.000000
     62       0.000000  -0.000000   0.000000   0.000000   0.000000   0.000000
     63       0.000000   0.000000   0.000000   0.000000  -0.000000   0.000000
     64       0.000000   0.000000   0.000000   0.000000   0.000000   0.000000
     65       0.000000   0.000000  -0.000000  -0.000000   0.000000   0.000000
     66      -0.000000   0.000000   0.000000   0.000000   0.000000   0.000000
     67       0.000000   0.000000   0.000000   0.000000  -0.000000   0.000000
     68       0.000000   0.000000   0.000000   0.000000   0.000000   0.000000
     69       0.000000   0.000000   0.000000   0.000000   0.000000   0.000000
     70      -0.000000   0.000000   0.000000   0.000000   0.000000   0.000000
     71       0.000000   0.000000   0.000000   0.000000   0.000000   0.000000
     72       0.000000   0.000000   0.000000   0.000000   0.000000   0.000000
     73      -0.000000   0.000000   0.000000   0.000000   0.000000   0.000000
     74       0.000000   0.000000   0.000000   0.000000   0.000000   0.000000
     75       0.000000   0.000000   0.000000   0.000000   0.000000   0.000000
     76       0.000000   0.000000  -0.000000   0.000000   0.000000   0.000000
     77      -0.000000   0.000000   0.000000   0.000000  -0.000000   0.000000
     78       0.000000  -0.000000   0.000000   0.000000   0.000000   0.000000
     79       0.000000   0.000000  -0.000000  -0.000000   0.000000   0.000000
     80      -0.000000   0.000000   0.000000   0.000000   0.000000   0.000000
[...]
 0 C  dz2            29.8      15.8       0.0       0.0       0.0       0.0
 0 C  dxz            24.8      38.4       0.0       0.0       0.0       0.0
 0 C  dyz            12.0      33.7       0.0       0.0       0.0       0.0
 0 C  dx2y2          25.5       0.0       0.0       0.0       0.0       0.0
 0 C  dxy             8.0      12.1       0.0       0.0       0.0       0.0

                    108   
                 508.44691
                   0.00000
                  --------
 0 C  s             100.0


                      *****************************
                      * MAYER POPULATION ANALYSIS *
                      *****************************

  NA   - Mulliken gross atomic population
  ZA   - Total nuclear charge
  QA   - Mulliken gross atomic charge
  VA   - Mayer's total valence
  BVA  - Mayer's bonded valence
  FA   - Mayer's free valence

  ATOM       NA         ZA         QA         VA         BVA        FA
  0 C      6.0000     6.0000    -0.0000    -0.0000     0.0000    -0.0000

  Mayer bond orders larger than 0.100000
  => no bond orders to print


------------------
HIRSHFELD ANALYSIS
------------------

Total integrated alpha density =      2.999999256
Total integrated beta density  =      2.999999256

  ATOM     CHARGE      SPIN    
   0 C    0.000001    0.000000

  TOTAL   0.000001    0.000000


Warning: MO coefficients are modified such that the real solid harmonic m components
have the correct order within each shell (0, +1, -1, +2, -2, ...) and all s orbitals
come before all p orbitals etc. (with increasing orbital energy within each block of given angular momentum).

CleanUpVectors: The p-vectors have cracked symmetry
-------------------------------------------
RADIAL EXPECTATION VALUES <R**-3> TO <R**3>
-------------------------------------------
   0 :     0.000005    65.232338     5.665173     0.268380     0.097142     0.044424
   1 :     0.000034     3.301044     0.903152     1.578646     3.009850     6.785886
   2 :     1.592513     0.847958     0.757909     1.803137     4.210411    12.249312
   3 :     0.615376     0.383075     0.462862     3.477517    16.875049   101.497261
   4 :     0.615376     0.383075     0.462862     3.477517    16.875049   101.497261
   5 :     0.000040     0.208035     0.220343     5.426466    31.711096   198.081661
   6 :     0.079588     0.060543     0.176202     6.743695    48.870386   374.072751
   7 :     0.459446     0.269332     0.334631     5.538986    39.081412   303.066087
   8 :     0.459446     0.269332     0.334631     5.538986    39.081412   303.066087
   9 :     0.014383     0.052951     0.220455     4.854672    24.981112   677.159787
  10 :     0.014383     0.052951     0.220455     4.854672    24.981112   677.159787
  11 :     0.014573     0.053154     0.220637     4.854159    24.981189   677.265038
  12 :     0.014573     0.053154     0.220637     4.854159    24.981189   677.265038
  13 :     0.014535     0.053349     0.220493     4.859289    25.038122   676.027349
  14 :     0.674185     0.349559     0.401684     3.968267    20.575959   131.364808
  15 :     0.965358     0.496186     0.493116     3.575700    18.019779   114.339900
  16 :     0.965358     0.496186     0.493116     3.575700    18.019779   114.339900
  17 :     0.000095     1.128140     0.433448     3.703278    17.564248   101.484017
  18 :     0.030079     0.091117     0.294178     3.559063    13.217584   357.640609
  19 :     0.030079     0.091117     0.294178     3.559063    13.217584   357.640609
  20 :     0.029964     0.090905     0.293877     3.561855    13.235846   358.297110
  21 :     0.029964     0.090905     0.293877     3.561855    13.235846   358.297110
  22 :     0.030049     0.090826     0.293689     3.564363    13.256545   358.332042
  23 :     0.030049     0.090826     0.293689     3.564363    13.256545   358.332042
  24 :     0.095616     0.177579     0.391149     3.015948    11.031292   245.458358
  25 :     0.095616     0.177579     0.391149     3.015948    11.031292   245.458358
  26 :     0.030041     0.090773     0.293601     3.565441    13.265640   358.277742
  27 :     0.097712     0.179390     0.392570     3.010598    11.006361   244.969162
  28 :     0.097712     0.179390     0.392570     3.010598    11.006361   244.969162
  29 :     0.098164     0.180860     0.393163     3.007956    10.991593   243.502269
  30 :     2.864502     1.173811     0.820810     2.102419     6.994405    34.106877
  31 :     2.864502     1.173811     0.820810     2.102419     6.994405    34.106877
  32 :     2.715703     1.107106     0.788163     2.169835     7.285754    35.527069
  33 :     0.000215     5.006608     0.959523     2.060180     6.532093    29.651196
  34 :     0.070528     0.164244     0.397729     2.606983     7.037499   137.516154
  35 :     0.070528     0.164244     0.397729     2.606983     7.037499   137.516154
  36 :     0.070445     0.164127     0.397602     2.607644     7.040688   137.600078
  37 :     0.070445     0.164127     0.397602     2.607644     7.040688   137.600078
  38 :     0.070391     0.164042     0.397505     2.608215     7.043731   137.673517
  39 :     0.070391     0.164042     0.397505     2.608215     7.043731   137.673517
  40 :     0.070356     0.163987     0.397440     2.608615     7.045975   137.725437
  41 :     0.070356     0.163987     0.397440     2.608615     7.045975   137.725437
  42 :     0.070343     0.163978     0.397418     2.608763     7.046834   137.744795
  43 :     0.448524     0.498802     0.649545     1.922268     4.950415    87.263309
  44 :     0.448524     0.498802     0.649545     1.922268     4.950415    87.263309
  45 :     0.450522     0.499291     0.649224     1.926286     4.970405    87.613242
  46 :     0.450522     0.499291     0.649224     1.926286     4.970405    87.613242
  47 :     0.451174     0.501162     0.649413     1.927023     4.975222    87.434875
  48 :     0.150896     0.262868     0.491750     2.261630     5.852775   123.576304
  49 :     0.150896     0.262868     0.491750     2.261630     5.852775   123.576304
  50 :     0.150888     0.262949     0.491935     2.259380     5.837387   123.010499
  51 :     0.150888     0.262949     0.491935     2.259380     5.837387   123.010499
  52 :     0.151396     0.263151     0.492090     2.258125     5.829614   122.556163
  53 :     0.151396     0.263151     0.492090     2.258125     5.829614   122.556163
  54 :     0.151680     0.263246     0.492146     2.257749     5.827451   122.376609
  55 :    10.157444     3.108590     1.422631     1.171105     2.425997     8.976751
  56 :    10.157444     3.108590     1.422631     1.171105     2.425997     8.976751
  57 :    10.104836     3.085619     1.413987     1.178939     2.445582     9.029219
  58 :     0.362957     0.473534     0.662519     1.652655     3.054865    45.038178
  59 :     0.362957     0.473534     0.662519     1.652655     3.054865    45.038178
  60 :     0.363039     0.473650     0.662646     1.651995     3.051675    44.954254
  61 :     0.363039     0.473650     0.662646     1.651995     3.051675    44.954254
  62 :     0.363282     0.473837     0.662787     1.651448     3.049177    44.889773
  63 :     0.363282     0.473837     0.662787     1.651448     3.049177    44.889773
  64 :     0.363443     0.473959     0.662878     1.651110     3.047656    44.850379
  65 :     0.363443     0.473959     0.662878     1.651110     3.047656    44.850379
  66 :     0.363496     0.473999     0.662908     1.650998     3.047149    44.837204
  67 :     2.293420     1.481307     1.115095     1.154533     1.938538    25.708322
  68 :     2.293420     1.481307     1.115095     1.154533     1.938538    25.708322
  69 :     2.294469     1.480587     1.114328     1.156039     1.942186    25.725724
  70 :     2.294469     1.480587     1.114328     1.156039     1.942186    25.725724
  71 :     2.294765     1.480449     1.114085     1.156529     1.943436    25.720809
  72 :     0.896517     0.841169     0.868655     1.335092     2.214631    34.093496
  73 :     0.896517     0.841169     0.868655     1.335092     2.214631    34.093496
  74 :     0.896670     0.841309     0.868774     1.334549     2.211755    34.002769
  75 :     0.896670     0.841309     0.868774     1.334549     2.211755    34.002769
  76 :     0.897693     0.841583     0.868876     1.334253     2.210295    33.935359
  77 :     0.897693     0.841583     0.868876     1.334253     2.210295    33.935359
  78 :     0.898331     0.841736     0.868921     1.334162     2.209874    33.909812
  79 :     0.000023    22.248113     2.388453     0.946947     1.726957     6.030787
  80 :    49.726616     9.510437     2.606707     0.600116     0.703332     1.962371
  81 :    49.726616     9.510437     2.606707     0.600116     0.703332     1.962371
  82 :    49.704251     9.501009     2.604112     0.601186     0.705158     1.965171
  83 :    18.831947     6.331527     2.365122     0.517013     0.406910     3.411010
  84 :    18.831947     6.331527     2.365122     0.517013     0.406910     3.411010
  85 :    18.832869     6.330800     2.364752     0.517262     0.407375     3.414896
  86 :    18.832869     6.330800     2.364752     0.517262     0.407375     3.414896
  87 :    18.833017     6.330947     2.364643     0.517345     0.407533     3.415980
  88 :     0.000134    72.762927     4.855488     0.468916     0.491534     1.362163
  89 :   201.655459    26.951530     4.563061     0.323016     0.211753     0.447207
  90 :   201.655459    26.951530     4.563061     0.323016     0.211753     0.447207
  91 :   201.645018    26.946335     4.562139     0.323170     0.211946     0.447492
  92 :    59.693248    14.110560     3.624157     0.294521     0.093307     0.245719
  93 :    59.693248    14.110560     3.624157     0.294521     0.093307     0.245719
  94 :    59.693218    14.110552     3.624155     0.294522     0.093309     0.245750
  95 :    59.693218    14.110552     3.624155     0.294522     0.093309     0.245750
  96 :    59.693206    14.110547     3.624153     0.294523     0.093311     0.245768
  97 :    59.693206    14.110547     3.624153     0.294523     0.093311     0.245768
  98 :    59.693203    14.110545     3.624153     0.294523     0.093311     0.245774
  99 :   173.769322    27.194213     4.866354     0.249885     0.093687     0.460371
 100 :   173.769322    27.194213     4.866354     0.249885     0.093687     0.460371
 101 :   173.762940    27.193090     4.866184     0.249910     0.093716     0.460570
 102 :   173.762940    27.193090     4.866184     0.249910     0.093716     0.460570
 103 :   173.759663    27.193856     4.866161     0.249918     0.093726     0.460629
 104 :     0.001180   180.590682     9.067163     0.240427     0.151795     0.354637
 105 :  1547.838291   101.585931     8.774791     0.171175     0.064329     0.107060
 106 :  1547.838291   101.585931     8.774791     0.171175     0.064329     0.107060
 107 :  1547.765486   101.580570     8.774398     0.171195     0.064348     0.107087
 108 :     0.000000  1565.059031    25.675713     0.107733     0.037298     0.054974
-------
TIMINGS
-------

Total SCF time: 0 days 0 hours 0 min 3 sec 

Total time                  ....       3.741 sec
Sum of individual times     ....       3.484 sec  ( 93.1%)

SCF preparation             ....       0.157 sec  (  4.2%)
Fock matrix formation       ....       2.609 sec  ( 69.7%)
  Startup                   ....       0.048 sec  (  1.8% of F)
  Coulomb+Exchange Fock     ....       2.345 sec  ( 89.9% of F)
Diagonalization             ....       0.000 sec  (  0.0%)
Density matrix formation    ....       0.202 sec  (  5.4%)
Total Energy calculation    ....       0.050 sec  (  1.3%)
Population analysis         ....       0.074 sec  (  2.0%)
Orbital Transformation      ....       0.052 sec  (  1.4%)
Orbital Orthonormalization  ....       0.000 sec  (  0.0%)
DIIS solution               ....       0.264 sec  (  7.1%)
  MO trafo                  ....       0.000 sec  (  0.0 % of DIIS)
  Orb grad                  ....       0.000 sec  (  0.0 % of DIIS)
  Energy W gradient         ....       0.000 sec  (  0.0 % of DIIS)
  DIIS error                ....       0.002 sec  (  0.6 % of DIIS)
  DIIS work                 ....       0.203 sec  ( 77.1 % of DIIS)
  Form Q                    ....       0.000 sec  (  0.0 % of DIIS)
  Form QpQm                 ....       0.000 sec  (  0.0 % of DIIS)
  Exp/Cayley                ....       0.000 sec  (  0.0 % of DIIS)
  Orb update                ....       0.000 sec  (  0.0 % of DIIS)
  Wake-sleep                ....       0.032 sec  ( 12.3 % of DIIS)
SOSCF solution              ....       0.076 sec  (  2.0%)
  MO trafo                  ....       0.045 sec  ( 59.3 % of SOSCF)
  Orb grad                  ....       0.004 sec  (  5.5 % of SOSCF)
  Rot update                ....       0.010 sec  ( 13.3 % of SOSCF)
  Step                      ....       0.017 sec  ( 21.9 % of SOSCF)
Finished LeanSCF after   3.8 sec

Maximum memory used throughout the entire LEANSCF-calculation: 21.9 MB

-------------------------   --------------------
FINAL SINGLE POINT ENERGY       -37.604578168524
-------------------------   --------------------


------------------------------------------------------------------------------
                              ORCA PROPERTY CALCULATIONS
------------------------------------------------------------------------------

GBWName                                 ... large_basis_c.gbw
Number of atoms                         ...      1
Number of basis functions               ...    116
Max core memory                         ...   2000 MB

Electric properties:
Dipole moment                           ... YES
Quadrupole moment                       ...  NO
Static polarizability (Dipole/Dipole)   ...  NO
Static polarizability (Dipole/Quad.)    ...  NO
Static polarizability (Quad./Quad.)     ...  NO
Static polarizability (Velocity)        ...  NO

Atomic electric properties:
Dipole moment                           ...  NO
Quadrupole moment                       ...  NO
Static polarizability                   ...  NO

Choice of electric origin               ... Center of mass
Position of electric origin             ...    -2.674435     0.435053     0.000000

General magnetic properties:
Magnetizability                         ...  NO

EPR properties:
g-Tensor (aka g-matrix)                 ...  NO
Zero-Field splitting spin-orbit         ...  NO
Zero-field splitting spin-spin          ...  NO
Hyperfine couplings                     ...  NO (   0 nuclei)
Quadrupole couplings                    ...  NO (   0 nuclei)
Contact density                         ...  NO (   0 nuclei)

NMR properties:
Chemical shifts                         ...  NO (   0 nuclei)
Spin-rotation constants                 ...  NO (   0 nuclei)
Spin-spin couplings                     ...  NO (   0 nuclei,    0 pairs)

Choice of magnetic origin               ... GIAO
Position of magnetic origin             ...     0.000000     0.000000     0.000000

Properties with geometric perturbations:
SCF Hessian                             ...  NO
IR spectrum                             ...  NO
VCD spectrum                            ...  NO
X-ray spectroscopy properties:
SCF XES/XAS/RIXS spectra                ...  NO


-------------
DIPOLE MOMENT
-------------

Method             : SCF
Type of density    : Electron Density
Multiplicity       :   1
Irrep              :   0
Energy             :   -37.6045781685237017 Eh
Relativity type    : 
Basis              : AO
                                X                 Y                 Z
Electronic contribution:      0.000000000      -0.000000000      -0.000000000
Nuclear contribution   :     -0.000000000       0.000000000       0.000000000
                        -----------------------------------------
Total Dipole Moment    :      0.000000000      -0.000000000      -0.000000000
                        -----------------------------------------
Magnitude (a.u.)       :      0.000000000
Magnitude (Debye)      :      0.000000000



--------------------
Rotational spectrum 
--------------------
 
Rotational constants in cm-1:             0.000000             0.000000             0.000000 
Rotational constants in MHz :             0.000000             0.000000             0.000000 

Dipole components along the rotational axes: 
x,y,z [a.u.] :     0.000000    -0.000000    -0.000000 
x,y,z [Debye]:     0.000000    -0.000000    -0.000000 

 

Dipole moment calculation done in   0.0 sec 

Maximum memory used throughout the entire PROP-calculation: 7.0 MB

--------------------------------
SUGGESTED CITATIONS FOR THIS RUN
--------------------------------

Below you find a list of papers that are relevant to this ORCA run
We neither can nor want to force you to cite these papers, but we appreciate if you do
You receive ORCA, which is the product of decades of hard work by many enthusiastic individuals, for free
The only thing we kindly ask in return is that you cite our papers,
We deeply appreciate it, if you show your appreciation for ORCA by not just citing the generic ORCA reference.

Please note that relegating all ORCA citations to the supporting information does *not* help us.
SI sections are not indexed - citations you put there will not count into any citation statistics
But we need these citations in order to attract the funding resources that allow us to do what we are doing

Therefore, if you are a happy ORCA user, please consider citing a few of the papers listed below in the main body of your paper

In addition to the list printed below, the program has created the file large_basis_c.bibtex that contains the list in bibtex format
You can import this file easily into all common literature databanks and citation aid programs


List of essential papers. We consider these as the minimum necessary citations

  1. Neese,F.
     Software update: the ORCA program system, version 5.0
     WIRES Comput. Molec. Sci., 2022 12(1)e1606
     doi.org/10.1002/wcms.1606

List of papers to cite with high priority. The work reported in these papers was absolutely
necessary for this run to complete.
Our perspective: the developers of density functionals and basis sets usually get cited in chemistry papers
Good! But without the algorithms to do something with them, the functionals or basis sets would not do anything.
Hence, in our opinion, the algorithm design and method developments papers are equally worthy of getting cited

  1. Neese,F.
     The SHARK Integral Generation and Digestion System
     J. Comp. Chem., 2022  1-16
     doi.org/10.1002/jcc.26942

List of suggested additional citations. These are papers that are important in the 'surrounding' of 
of this run, or papers that preceded the highly important papers. If you like your results we are grateful for a citation.

  1. Neese,F.
     The ORCA program system
     WIRES Comput. Molec. Sci., 2012 2(1)73-78
     doi.org/10.1002/wcms.81
  2. Neese,F.
     Software update: the ORCA program system, version 4.0
     WIRES Comput. Molec. Sci., 2018 8(1)1-6
     doi.org/10.1002/wcms.1327
  3. Neese,F.; Wennmohs,F.; Becker,U.; Riplinger,C.
     The ORCA quantum chemistry program package
     J. Chem. Phys., 2020 152 Art. No. L224108
     doi.org/10.1063/5.0004608

List of optional additional citations

  1. Neese,F.
     Approximate second-order SCF convergence for spin unrestricted wavefunctions
     Chem. Phys. Lett., 2000 325(1-3)93-98
     doi.org/10.1016/s0009-2614(00)00662-x

Timings for individual modules:

Sum of individual times          ...        5.001 sec (=   0.083 min)
Startup calculation              ...        0.633 sec (=   0.011 min)  12.7 %
SCF iterations                   ...        4.233 sec (=   0.071 min)  84.6 %
Property calculations            ...        0.136 sec (=   0.002 min)   2.7 %
                             ****ORCA TERMINATED NORMALLY****
TOTAL RUN TIME: 0 days 0 hours 0 minutes 5 seconds 716 msec
